      -----------------------------------------------------------      
     |                   =====================                   |     
     |                           x T B                           |     
     |                   =====================                   |     
     |                         S. Grimme                         |     
     |          Mulliken Center for Theoretical Chemistry        |     
     |                    University of Bonn                     |     
      -----------------------------------------------------------      

   * xtb version 6.4.0 (d4b70c2) compiled by 'ehlert@majestix' on 2021-02-01

   xtb is free software: you can redistribute it and/or modify it under
   the terms of the GNU Lesser General Public License as published by
   the Free Software Foundation, either version 3 of the License, or
   (at your option) any later version.
   
   xtb is distributed in the hope that it will be useful,
   but WITHOUT ANY WARRANTY; without even the implied warranty of
   MERCHANTABILITY or FITNESS FOR A PARTICULAR PURPOSE.  See the
   GNU Lesser General Public License for more details.
   
   Cite this work as:
   * C. Bannwarth, E. Caldeweyher, S. Ehlert, A. Hansen, P. Pracht,
     J. Seibert, S. Spicher, S. Grimme, WIREs Comput. Mol. Sci., 2020,
     e01493. DOI: 10.1002/wcms.1493
   
   for GFN2-xTB:
   * C. Bannwarth, S. Ehlert and S. Grimme., J. Chem. Theory Comput., 2019,
     15, 1652-1671. DOI: 10.1021/acs.jctc.8b01176
   for GFN1-xTB:
   * S. Grimme, C. Bannwarth, P. Shushkov, J. Chem. Theory Comput., 2017,
     13, 1989-2009. DOI: 10.1021/acs.jctc.7b00118
   for GFN0-xTB:
   * P. Pracht, E. Caldeweyher, S. Ehlert, S. Grimme, ChemRxiv, 2019, preprint.
     DOI: 10.26434/chemrxiv.8326202.v1
   for GFN-FF:
   * S. Spicher and S. Grimme, Angew. Chem. Int. Ed., 2020, 59, 15665-15673.
     DOI: 10.1002/anie.202004239
   
   for DFT-D4:
   * E. Caldeweyher, C. Bannwarth and S. Grimme, J. Chem. Phys., 2017,
     147, 034112. DOI: 10.1063/1.4993215
   * E. Caldeweyher, S. Ehlert, A. Hansen, H. Neugebauer, S. Spicher,
     C. Bannwarth and S. Grimme, J. Chem. Phys., 2019, 150, 154122.
     DOI: 10.1063/1.5090222
   * E. Caldeweyher, J.-M. Mewes, S. Ehlert and S. Grimme, Phys. Chem. Chem. Phys.
     2020, 22, 8499-8512. DOI: 10.1039/D0CP00502A
   
   for sTDA-xTB:
   * S. Grimme and C. Bannwarth, J. Chem. Phys., 2016, 145, 054103.
     DOI: 10.1063/1.4959605
   
   in the mass-spec context:
   * V. Asgeirsson, C. Bauer and S. Grimme, Chem. Sci., 2017, 8, 4879.
     DOI: 10.1039/c7sc00601b
   * J. Koopman and S. Grimme, ACS Omega 2019, 4, 12, 15120-15133.
     DOI: 10.1021/acsomega.9b02011
   
   for metadynamics refer to:
   * S. Grimme, J. Chem. Theory Comput., 2019, 155, 2847-2862
     DOI: 10.1021/acs.jctc.9b00143
   
   with help from (in alphabetical order)
   P. Atkinson, C. Bannwarth, F. Bohle, G. Brandenburg, E. Caldeweyher
   M. Checinski, S. Dohm, S. Ehlert, S. Ehrlich, I. Gerasimov, J. Koopman
   C. Lavinge, S. Lehtola, F. März, M. Müller, F. Musil, H. Neugebauer
   J. Pisarek, P. Pracht, J. Seibert, P. Shushkov, S. Spicher, M. Stahn
   T. Strunk, J. Stückrath, T. Rose, and J. Unsleber
   
 * started run on 2022/06/09 at 00:56:21.602     

           -------------------------------------------------
          |                Calculation Setup                |
           -------------------------------------------------

          program call               : /home/amax/XTB/xtb-6.4.0/bin/xtb xtb_tmp.xyz --chrg 1 --grad --gfn 1 --gbsa h2o --parallel 1
          hostname                   : amax
          coordinate file            : xtb_tmp.xyz
          omp threads                :                     1
          number of atoms            :                  1717
          number of electrons        :                  4946
          charge                     :                     1
          spin                       :                   0.0
          first test random number   :      0.05024949287586

   ID    Z sym.   atoms
    1    7 N      1, 8, 17, 33, 40, 51, 58, 65, 79, 101, 108, 117, 133, 140,
                  151, 158, 165, 179, 210, 217, 226, 242, 253, 267, 274, 296,
                  318, 340, 410, 417, 426, 442, 449, 458, 474, 481, 490, 506,
                  513, 524, 531, 538, 552, 574, 581, 590, 606, 613, 624, 631,
                  640, 656, 663, 674, 681, 688, 702, 724, 731, 740, 756, 763,
                  772, 788, 795, 806, 822, 829, 840, 847, 854, 868, 890, 897,
                  908, 915, 922, 929, 940, 947, 954, 968, 990, 1001, 1008,
                  1015, 1029, 1051, 1058, 1067, 1074, 1085, 1092, 1099, 1113,
                  1135, 1142, 1151, 1167, 1174, 1181, 1190, 1206, 1213, 1222,
                  1229, 1240, 1247, 1254, 1268, 1290, 1297, 1306, 1322, 1329,
                  1336, 1345, 1361, 1368, 1377, 1393, 1409, 1416, 1427, 1434,
                  1441, 1455, 1477, 1493, 1500, 1511, 1518, 1525, 1539, 1561,
                  1572, 1579, 1586, 1600, 1622, 1629, 1640, 1647, 1654, 1665,
                  1672
    2    6 C      2, 3, 5, 6, 18, 19, 21-23, 34, 35, 41, 42, 44, 52, 53, 55,
                  56, 66, 67, 69, 71, 80, 81, 83-89, 102, 103, 105, 106, 118,
                  119, 121-123, 134, 135, 141, 142, 144, 152, 153, 155, 156,
                  166, 167, 169, 171, 180, 181, 183-189, 211, 212, 214, 215,
                  227, 228, 230-232, 243, 244, 246, 254, 255, 257, 259, 268,
                  269, 275, 276, 278-284, 297, 298, 300-306, 319, 320,
                  322-328, 341, 342, 344-350, 411, 412, 414, 415, 427, 428,
                  430-432, 443, 444, 446, 447, 459, 460, 462-464, 475, 476,
                  478, 479, 491, 492, 494-496, 507, 508, 514, 515, 517, 525,
                  526, 528, 529, 539, 540, 542, 544, 553, 554, 556-562, 575,
                  576, 578, 579, 591, 592, 594-596, 607, 608, 614, 615, 617,
                  625, 626, 628, 629, 641, 642, 644-646, 657, 658, 664, 665,
                  667, 675, 676, 678, 679, 689, 690, 692, 694, 703, 704,
                  706-712, 725, 726, 728, 729, 741, 742, 744-746, 757, 758,
                  760, 761, 773, 774, 776-778, 789, 790, 796, 797, 799, 807,
                  808, 810-812, 823, 824, 830, 831, 833, 841, 842, 844, 845,
                  855, 856, 858, 860, 869, 870, 872-878, 891, 892, 898, 899,
                  901, 909, 910, 912, 913, 923, 924, 930, 931, 933, 941, 942,
                  944, 945, 955, 956, 958, 960, 969, 970, 972-978, 991, 992,
                  994, 1002, 1003, 1005, 1006, 1016, 1017, 1019, 1021, 1030,
                  1031, 1033-1039, 1052, 1053, 1055, 1056, 1068, 1069, 1075,
                  1076, 1078, 1086, 1087, 1089, 1090, 1100, 1101, 1103, 1105,
                  1114, 1115, 1117-1123, 1136, 1137, 1139, 1140, 1152, 1153,
                  1155-1157, 1168, 1169, 1175, 1176, 1178, 1179, 1191, 1192,
                  1194-1196, 1207, 1208, 1210, 1211, 1223, 1224, 1230, 1231,
                  1233, 1241, 1242, 1244, 1245, 1255, 1256, 1258, 1260, 1269,
                  1270, 1272-1278, 1291, 1292, 1294, 1295, 1307, 1308,
                  1310-1312, 1323, 1324, 1330, 1331, 1333, 1334, 1346, 1347,
                  1349-1351, 1362, 1363, 1365, 1366, 1378, 1379, 1381-1383,
                  1394, 1395, 1397-1399, 1410, 1411, 1417, 1418, 1420, 1428,
                  1429, 1431, 1432, 1442, 1443, 1445, 1447, 1456, 1457,
                  1459-1465, 1478, 1479, 1481-1483, 1494, 1495, 1501, 1502,
                  1504, 1512, 1513, 1515, 1516, 1526, 1527, 1529, 1531, 1540,
                  1541, 1543-1549, 1562, 1563, 1565, 1573, 1574, 1576, 1577,
                  1587, 1588, 1590, 1592, 1601, 1602, 1604-1610, 1623, 1624,
                  1630, 1631, 1633, 1641, 1642, 1644, 1645, 1655, 1656, 1658,
                  1666, 1667, 1669, 1670
    3    8 O      4, 7, 20, 36, 43, 45, 54, 57, 68, 70, 82, 90, 91, 104, 107,
                  120, 136, 143, 145, 154, 157, 168, 170, 182, 190, 191, 201,
                  204, 207, 213, 216, 229, 245, 247, 256, 258, 270, 277, 285,
                  286, 299, 307, 308, 321, 329, 330, 343, 351, 352, 362, 365,
                  368, 371, 374, 377, 380, 383, 386, 389, 392, 395, 398, 401,
                  404, 407, 413, 416, 429, 445, 448, 461, 477, 480, 493, 509,
                  516, 518, 527, 530, 541, 543, 555, 563, 564, 577, 580, 593,
                  609, 616, 618, 627, 630, 643, 659, 666, 668, 677, 680, 691,
                  693, 705, 713, 714, 727, 730, 743, 759, 762, 775, 791, 798,
                  800, 809, 825, 832, 834, 843, 846, 857, 859, 871, 879, 880,
                  893, 900, 902, 911, 914, 925, 932, 934, 943, 946, 957, 959,
                  971, 979, 980, 993, 995, 1004, 1007, 1018, 1020, 1032,
                  1040, 1041, 1054, 1057, 1070, 1077, 1079, 1088, 1091, 1102,
                  1104, 1116, 1124, 1125, 1138, 1141, 1154, 1170, 1177, 1180,
                  1193, 1209, 1212, 1225, 1232, 1234, 1243, 1246, 1257, 1259,
                  1271, 1279, 1280, 1293, 1296, 1309, 1325, 1332, 1335, 1348,
                  1364, 1367, 1380, 1396, 1412, 1419, 1421, 1430, 1433, 1444,
                  1446, 1458, 1466, 1467, 1480, 1496, 1503, 1505, 1514, 1517,
                  1528, 1530, 1542, 1550, 1551, 1564, 1566, 1575, 1578, 1589,
                  1591, 1603, 1611, 1612, 1625, 1632, 1634, 1643, 1646, 1657,
                  1659, 1668, 1671
    4    1 H      9-16, 24-32, 37-39, 46-50, 59-64, 72-78, 92-100, 109-116,
                  124-132, 137-139, 146-150, 159-164, 172-178, 192-200, 202,
                  203, 205, 206, 208, 209, 218-225, 233-241, 248-252,
                  260-266, 271-273, 287-295, 309-317, 331-339, 353-361, 363,
                  364, 366, 367, 369, 370, 372, 373, 375, 376, 378, 379, 381,
                  382, 384, 385, 387, 388, 390, 391, 393, 394, 396, 397, 399,
                  400, 402, 403, 405, 406, 408, 409, 418-425, 433-441,
                  450-457, 465-473, 482-489, 497-505, 510-512, 519-523,
                  532-537, 545-551, 565-573, 582-589, 597-605, 610-612,
                  619-623, 632-639, 647-655, 660-662, 669-673, 682-687,
                  695-701, 715-723, 732-739, 747-755, 764-771, 779-787,
                  792-794, 801-805, 813-821, 826-828, 835-839, 848-853,
                  861-867, 881-889, 894-896, 903-907, 916-921, 926-928,
                  935-939, 948-953, 961-967, 981-989, 996-1000, 1009-1014,
                  1022-1028, 1042-1050, 1059-1066, 1071-1073, 1080-1084,
                  1093-1098, 1106-1112, 1126-1134, 1143-1150, 1158-1166,
                  1171-1173, 1182-1189, 1197-1205, 1214-1221, 1226-1228,
                  1235-1239, 1248-1253, 1261-1267, 1281-1289, 1298-1305,
                  1313-1321, 1326-1328, 1337-1344, 1352-1360, 1369-1376,
                  1384-1392, 1400-1408, 1413-1415, 1422-1426, 1435-1440,
                  1448-1454, 1468-1476, 1484-1492, 1497-1499, 1506-1510,
                  1519-1524, 1532-1538, 1552-1560, 1567-1571, 1580-1585,
                  1593-1599, 1613-1621, 1626-1628, 1635-1639, 1648-1653,
                  1660-1664, 1673-1717

molecular fragmentation (1/2 indicates fragments):
111111111111111111111111111111111111111111111111111111111111111111111111
111111111111111111111111111122222222222222222222222222222222222222222222
222222222222222222222222222222222222222222222222222222222222222222222222
222222222222222222222222222222222222222222222222222222222222222222222222
222222222222222222222222222222222222222222222222222222222222222222222222
222222222222222222222222222222222222222222222222222222222222222222222222
222222222222222222222222222222222222222222222222222222222222222222222222
222222222222222222222222222222222222222222222222222222222222222222222222
222222222222222222222222222222222222222222222222222222222222222222222222
222222222222222222222222222222222222222222222222222222222222222222222222
222222222222222222222222222222222222222222222222222222222222222222222222
222222222222222222222222222222222222222222222222222222222222222222222222
222222222222222222222222222222222222222222222222222222222222222222222222
222222222222222222222222222222222222222222222222222222222222222222222222
222222222222222222222222222222222222222222222222222222222222222222222222
222222222222222222222222222222222222222222222222222222222222222222222222
222222222222222222222222222222222222222222222222222222222222222222222222
222222222222222222222222222222222222222222222222222222222222222222222222
222222222222222222222222222222222222222222222222222222222222222222222222
222222222222222222222222222222222222222222222222222222222222222222222222
222222222222222222222222222222222222222222222222222222222222222222222222
222222222222222222222222222222222222222222222222222222222222222222222222
222222222222222222222222222222222222222222222222222222222222222222222222
2222222222222222222222222222222222222222222222222222222222222
# atoms in fragment 1/2:   100  1617
 fragment masses (1/2) :      753.76    11816.15
CMA distance (Bohr)    :   8.462
constraining FC (au)   :  0.0500

           -------------------------------------------------
          |                 G F N 1 - x T B                 |
           -------------------------------------------------

        Reference                      10.1021/acs.jctc.7b00118
      * Hamiltonian:
        H0-scaling (s, p, d)           1.850000    2.250000    2.000000
        zeta-weighting                 0.000000
      * Dispersion:
        s8                             2.400000
        a1                             0.630000
        a2                             5.000000
        s9                             0.000000
      * Repulsion:
        kExp                           1.500000
        rExp                           1.000000
      * Coulomb:
        alpha                          2.000000
        third order                    atomic
        anisotropic                    false
      * Halogen bond correction:
        rad-scale                      1.300000
        damping                        0.440000

      * Solvation model:               GBSA
        Solvent                        h2o
        Parameter file                 internal GFN1-xTB/GBSA
        Dielectric constant                7.8500E+01
        Reference state                gsolv [1 M gas/solution]
        Free energy shift                  2.0755E-03 Eh       1.3024E+00 kcal/mol
        Temperature                        2.9815E+02 K
        Density                            9.9800E-01 kg/L
        Solvent mass                       1.8000E+01 g/mol
        Interaction kernel             Still
        Born radius scaling (c1)           1.5808E+00
        Born radii integrator          GBOBC
        Born offset                        1.3596E-02 a0       2.5692E-02 AA
        H-bond correction              true
        Ion screening                  false
        Surface tension                    1.0000E-05 Eh       1.5569E+01 dyn/cm
        Grid points                               230 per atom

          ...................................................
          :                      SETUP                      :
          :.................................................:
          :  # basis functions                5186          :
          :  # atomic orbitals                5186          :
          :  # shells                         3434          :
          :  # electrons                      4946          :
          :  # halogen bonds                     0          :
          :  max. iterations                   250          :
          :  Hamiltonian                  GFN1-xTB          :
          :  restarted?                      false          :
          :  GBSA solvation                   true          :
          :  PC potential                    false          :
          :  electronic temp.          300.0000000     K    :
          :  accuracy                    1.0000000          :
          :  -> integral cutoff          0.2500000E+02      :
          :  -> integral neglect         0.1000000E-07      :
          :  -> SCF convergence          0.1000000E-05 Eh   :
          :  -> wf. convergence          0.2000000E-04 e    :
          :  Broyden damping             0.4000000          :
          ...................................................

 iter      E             dE          RMSdq      gap      omega  full diag
   1  -3075.6867304 -0.307569E+04  0.815E+00    2.37       0.0  T
   2  -3087.8438231 -0.121571E+02  0.483E+00    1.58       1.0  T
   3  -3087.7917740  0.520491E-01  0.137E+00    0.88       1.0  T
   4  -3088.1748166 -0.383043E+00  0.148E-01    0.48       1.0  T
   5  -3088.1981676 -0.233510E-01  0.323E-02    0.61       1.0  T
   6  -3088.1992480 -0.108043E-02  0.765E-03    0.63       1.0  T
   7  -3088.1993024 -0.543641E-04  0.281E-03    0.64       1.0  T
   8  -3088.1993066 -0.416704E-05  0.822E-04    0.65       2.9  T
   9  -3088.1993068 -0.283459E-06  0.238E-04    0.65      10.2  T
  10  -3088.1993069 -0.196942E-07  0.586E-05    0.65      41.2  T
  11  -3088.1993069 -0.138789E-08  0.201E-05    0.65     120.3  T

   *** convergence criteria satisfied after 11 iterations ***

         #    Occupation            Energy/Eh            Energy/eV
      -------------------------------------------------------------
         1        2.0000           -0.8771837             -23.8694
       ...           ...                  ...                  ...
      2467        2.0000           -0.3894463             -10.5974
      2468        2.0000           -0.3887632             -10.5788
      2469        2.0000           -0.3868196             -10.5259
      2470        2.0000           -0.3847838             -10.4705
      2471        2.0000           -0.3788255             -10.3084
      2472        2.0000           -0.3776244             -10.2757
      2473        2.0000           -0.3697364             -10.0610 (HOMO)
      2474        0.0000           -0.3458566              -9.4112 (LUMO)
      2475        0.0000           -0.3442837              -9.3684
      2476                         -0.3337838              -9.0827
      2477                         -0.3303135              -8.9883
      2478                         -0.3274775              -8.9111
       ...                                ...                  ...
      5186                          0.9717627              26.4430
      -------------------------------------------------------------
                  HL-Gap            0.0238798 Eh            0.6498 eV
             Fermi-level           -0.3578793 Eh           -9.7384 eV

 SCC (total)                   0 d,  0 h,  7 min, 11.391 sec
 SCC setup                      ...        0 min,  0.603 sec (  0.140%)
 Dispersion                     ...        0 min,  0.257 sec (  0.060%)
 classical contributions        ...        0 min,  0.071 sec (  0.016%)
 integral evaluation            ...        0 min, 46.819 sec ( 10.853%)
 iterations                     ...        5 min, 56.310 sec ( 82.596%)
 molecular gradient             ...        0 min, 24.291 sec (  5.631%)
 printout                       ...        0 min,  3.040 sec (  0.705%)

         :::::::::::::::::::::::::::::::::::::::::::::::::::::
         ::                     SUMMARY                     ::
         :::::::::::::::::::::::::::::::::::::::::::::::::::::
         :: total energy           -3057.394173543379 Eh    ::
         :: total w/o Gsasa/hb     -3057.320216744554 Eh    ::
         :: gradient norm              1.831313435724 Eh/a0 ::
         :: HOMO-LUMO gap              0.649803034885 eV    ::
         ::.................................................::
         :: SCC energy             -3088.199306859822 Eh    ::
         :: -> electrostatic          16.630202354856 Eh    ::
         :: -> Gsolv                  -2.216752783783 Eh    ::
         ::    -> Gborn               -2.142795984958 Eh    ::
         ::    -> Gsasa                0.177946361197 Eh    ::
         ::    -> Ghb                 -0.253978630662 Eh    ::
         ::    -> Gshift               0.002075470640 Eh    ::
         :: repulsion energy          32.918060123517 Eh    ::
         :: dispersion energy         -2.112926807074 Eh    ::
         :: halogen bond corr.         0.000000000000 Eh    ::
         :: add. restraining           0.000000000000 Eh    ::
         :: total charge               1.000000000000 e     ::
         :::::::::::::::::::::::::::::::::::::::::::::::::::::

           -------------------------------------------------
          |                Property Printout                |
           -------------------------------------------------

    * Orbital Energies and Occupations

         #    Occupation            Energy/Eh            Energy/eV
      -------------------------------------------------------------
         1        2.0000           -0.8771837             -23.8694
       ...           ...                  ...                  ...
      2461        2.0000           -0.3979144             -10.8278
      2462        2.0000           -0.3974367             -10.8148
      2463        2.0000           -0.3968098             -10.7977
      2464        2.0000           -0.3945341             -10.7358
      2465        2.0000           -0.3944621             -10.7339
      2466        2.0000           -0.3930899             -10.6965
      2467        2.0000           -0.3894463             -10.5974
      2468        2.0000           -0.3887632             -10.5788
      2469        2.0000           -0.3868196             -10.5259
      2470        2.0000           -0.3847838             -10.4705
      2471        2.0000           -0.3788255             -10.3084
      2472        2.0000           -0.3776244             -10.2757
      2473        2.0000           -0.3697364             -10.0610 (HOMO)
      2474        0.0000           -0.3458566              -9.4112 (LUMO)
      2475        0.0000           -0.3442837              -9.3684
      2476                         -0.3337838              -9.0827
      2477                         -0.3303135              -8.9883
      2478                         -0.3274775              -8.9111
      2479                         -0.3274164              -8.9095
      2480                         -0.3249683              -8.8428
      2481                         -0.3244910              -8.8298
      2482                         -0.3238167              -8.8115
      2483                         -0.3236748              -8.8076
      2484                         -0.3229402              -8.7876
       ...                                ...                  ...
      5186                          0.9717627              26.4430
      -------------------------------------------------------------
                  HL-Gap            0.0238798 Eh            0.6498 eV
             Fermi-level           -0.3578793 Eh           -9.7384 eV

  Mulliken/CM5 charges         n(s)   n(p)   n(d)
     1N    -0.19651 -0.80145   1.457  3.739  0.000
     2C     0.08315  0.07790   1.044  2.873  0.000
     3C     0.47781  0.57952   0.985  2.537  0.000
     4O    -0.59622 -0.67635   1.725  4.871  0.000
     5C    -0.08876 -0.17913   1.047  3.042  0.000
     6C     0.48024  0.57259   0.991  2.529  0.000
     7O    -0.63893 -0.71108   1.734  4.905  0.000
     8N    -0.40693 -0.87018   1.432  3.975  0.000
     9H     0.27643  0.47533   0.724  0.000  0.000
    10H     0.27294  0.46754   0.727  0.000  0.000
    11H     0.27673  0.47949   0.723  0.000  0.000
    12H     0.07954  0.16821   0.920  0.000  0.000
    13H     0.07497  0.14404   0.925  0.000  0.000
    14H     0.07381  0.13889   0.926  0.000  0.000
    15H     0.28302  0.50296   0.717  0.000  0.000
    16H     0.25969  0.46039   0.740  0.000  0.000
    17N    -0.30978 -0.67950   1.427  3.883  0.000
    18C     0.08933  0.09443   1.041  2.869  0.000
    19C     0.46637  0.57132   0.996  2.538  0.000
    20O    -0.61463 -0.67520   1.733  4.882  0.000
    21C    -0.00093 -0.06988   1.056  2.945  0.000
    22C    -0.08701 -0.23770   1.014  3.073  0.000
    23C    -0.07849 -0.22856   1.015  3.064  0.000
    24H     0.25825  0.46343   0.742  0.000  0.000
    25H     0.06121  0.14879   0.939  0.000  0.000
    26H     0.02748  0.09196   0.973  0.000  0.000
    27H     0.03611  0.08958   0.964  0.000  0.000
    28H     0.02767  0.08476   0.972  0.000  0.000
    29H     0.03482  0.09043   0.965  0.000  0.000
    30H     0.02857  0.08279   0.971  0.000  0.000
    31H     0.03475  0.09334   0.965  0.000  0.000
    32H     0.03878  0.10064   0.961  0.000  0.000
    33N    -0.31811 -0.68675   1.427  3.891  0.000
    34C     0.06192  0.02548   1.017  2.921  0.000
    35C     0.47448  0.57416   0.996  2.530  0.000
    36O    -0.59399 -0.67621   1.727  4.867  0.000
    37H     0.26387  0.46792   0.736  0.000  0.000
    38H     0.08850  0.17300   0.912  0.000  0.000
    39H     0.05994  0.13631   0.940  0.000  0.000
    40N    -0.32116 -0.67330   1.428  3.893  0.000
    41C     0.08721  0.09105   1.043  2.870  0.000
    42C     0.46734  0.57225   0.992  2.541  0.000
    43O    -0.59818 -0.66482   1.730  4.868  0.000
    44C     0.19950  0.11944   0.996  2.805  0.000
    45O    -0.59752 -0.81740   1.704  4.894  0.000
    46H     0.25267  0.45444   0.747  0.000  0.000
    47H     0.05681  0.14052   0.943  0.000  0.000
    48H     0.04080  0.11277   0.959  0.000  0.000
    49H     0.04575  0.11666   0.954  0.000  0.000
    50H     0.36063  0.53328   0.639  0.000  0.000
    51N    -0.32139 -0.68103   1.428  3.893  0.000
    52C     0.11126  0.11614   1.035  2.854  0.000
    53C     0.47106  0.57543   0.990  2.539  0.000
    54O    -0.61112 -0.67300   1.729  4.882  0.000
    55C    -0.08908 -0.17868   1.047  3.042  0.000
    56C     0.48871  0.58330   0.989  2.522  0.000
    57O    -0.60609 -0.68036   1.722  4.884  0.000
    58N    -0.39046 -0.84986   1.424  3.967  0.000
    59H     0.25977  0.47459   0.740  0.000  0.000
    60H     0.06362  0.14856   0.936  0.000  0.000
    61H     0.05764  0.13096   0.942  0.000  0.000
    62H     0.05740  0.12230   0.943  0.000  0.000
    63H     0.25996  0.46145   0.740  0.000  0.000
    64H     0.24979  0.45008   0.750  0.000  0.000
    65N    -0.32053 -0.68238   1.431  3.889  0.000
    66C     0.08041  0.08762   1.041  2.878  0.000
    67C     0.47393  0.57934   0.989  2.537  0.000
    68O    -0.60555 -0.67562   1.728  4.878  0.000
    69C     0.22873  0.18584   1.017  2.754  0.000
    70O    -0.59323 -0.82272   1.711  4.882  0.000
    71C    -0.10398 -0.25149   1.020  3.084  0.000
    72H     0.26074  0.46951   0.739  0.000  0.000
    73H     0.06236  0.15279   0.938  0.000  0.000
    74H     0.01535  0.08667   0.985  0.000  0.000
    75H     0.36872  0.56099   0.631  0.000  0.000
    76H     0.03290  0.09061   0.967  0.000  0.000
    77H     0.03011  0.08859   0.970  0.000  0.000
    78H     0.04725  0.11280   0.953  0.000  0.000
    79N    -0.31376 -0.67287   1.430  3.884  0.000
    80C     0.08742  0.08692   1.047  2.865  0.000
    81C     0.57853  0.64155   0.965  2.457  0.000
    82O    -0.66753 -0.75329   1.728  4.939  0.000
    83C    -0.04487 -0.14186   1.038  3.007  0.000
    84C    -0.00746 -0.02254   1.084  2.924  0.000
    85C    -0.03591 -0.08969   1.063  2.973  0.000
    86C    -0.03263 -0.08775   1.061  2.972  0.000
    87C    -0.07766 -0.13063   1.056  3.021  0.000
    88C    -0.09031 -0.14416   1.063  3.027  0.000
    89C     0.25197  0.26075   1.021  2.727  0.000
    90O    -0.55777 -0.76942   1.708  4.849  0.000
    91O    -0.70130 -0.76134   1.744  4.957  0.000
    92H     0.25405  0.45905   0.746  0.000  0.000
    93H     0.04364  0.12473   0.956  0.000  0.000
    94H     0.03893  0.10233   0.961  0.000  0.000
    95H     0.04031  0.09976   0.960  0.000  0.000
    96H     0.02955  0.09396   0.970  0.000  0.000
    97H     0.03031  0.08852   0.970  0.000  0.000
    98H     0.03758  0.09983   0.962  0.000  0.000
    99H     0.03931  0.10147   0.961  0.000  0.000
   100H     0.37890  0.57071   0.621  0.000  0.000
   101N    -0.21492 -0.81591   1.462  3.752  0.000
   102C     0.07020  0.06433   1.048  2.882  0.000
   103C     0.46849  0.57138   0.984  2.548  0.000
   104O    -0.60153 -0.65962   1.727  4.874  0.000
   105C    -0.09017 -0.18049   1.046  3.044  0.000
   106C     0.48176  0.57440   0.987  2.531  0.000
   107O    -0.63827 -0.71002   1.729  4.910  0.000
   108N    -0.39894 -0.86588   1.433  3.966  0.000
   109H     0.28543  0.46691   0.715  0.000  0.000
   110H     0.28978  0.48000   0.710  0.000  0.000
   111H     0.30024  0.50038   0.700  0.000  0.000
   112H     0.08278  0.16761   0.917  0.000  0.000
   113H     0.08490  0.15558   0.915  0.000  0.000
   114H     0.08206  0.14781   0.918  0.000  0.000
   115H     0.28154  0.49657   0.718  0.000  0.000
   116H     0.27225  0.47746   0.728  0.000  0.000
   117N    -0.31588 -0.67867   1.428  3.888  0.000
   118C     0.08318  0.08720   1.044  2.873  0.000
   119C     0.46606  0.57064   0.994  2.540  0.000
   120O    -0.59522 -0.65976   1.729  4.867  0.000
   121C    -0.00440 -0.07206   1.058  2.946  0.000
   122C    -0.09298 -0.24217   1.016  3.077  0.000
   123C    -0.09510 -0.24336   1.013  3.082  0.000
   124H     0.26720  0.47258   0.733  0.000  0.000
   125H     0.05826  0.13959   0.942  0.000  0.000
   126H     0.03860  0.10252   0.961  0.000  0.000
   127H     0.04525  0.09754   0.955  0.000  0.000
   128H     0.03315  0.09009   0.967  0.000  0.000
   129H     0.03560  0.08930   0.964  0.000  0.000
   130H     0.04369  0.09613   0.956  0.000  0.000
   131H     0.03975  0.09381   0.960  0.000  0.000
   132H     0.03793  0.09475   0.962  0.000  0.000
   133N    -0.32522 -0.69038   1.427  3.899  0.000
   134C     0.06267  0.02560   1.017  2.920  0.000
   135C     0.47649  0.57761   0.990  2.533  0.000
   136O    -0.59381 -0.67296   1.727  4.867  0.000
   137H     0.26037  0.45229   0.740  0.000  0.000
   138H     0.08410  0.16570   0.916  0.000  0.000
   139H     0.05829  0.13406   0.942  0.000  0.000
   140N    -0.31274 -0.66741   1.425  3.887  0.000
   141C     0.09067  0.09561   1.039  2.870  0.000
   142C     0.46621  0.57072   0.993  2.540  0.000
   143O    -0.59936 -0.67216   1.728  4.871  0.000
   144C     0.20639  0.12739   0.990  2.804  0.000
   145O    -0.59971 -0.81873   1.701  4.899  0.000
   146H     0.24861  0.44968   0.751  0.000  0.000
   147H     0.05232  0.13685   0.948  0.000  0.000
   148H     0.03547  0.10903   0.965  0.000  0.000
   149H     0.03990  0.11330   0.960  0.000  0.000
   150H     0.35718  0.53428   0.643  0.000  0.000
   151N    -0.32358 -0.68243   1.430  3.894  0.000
   152C     0.11109  0.11569   1.037  2.852  0.000
   153C     0.46965  0.57408   0.990  2.540  0.000
   154O    -0.60831 -0.67076   1.726  4.882  0.000
   155C    -0.08613 -0.17554   1.047  3.039  0.000
   156C     0.48655  0.57913   0.994  2.519  0.000
   157O    -0.60432 -0.68024   1.725  4.879  0.000
   158N    -0.39062 -0.84628   1.424  3.966  0.000
   159H     0.25975  0.47567   0.740  0.000  0.000
   160H     0.06239  0.14806   0.938  0.000  0.000
   161H     0.05533  0.12903   0.945  0.000  0.000
   162H     0.05624  0.12104   0.944  0.000  0.000
   163H     0.25621  0.45622   0.744  0.000  0.000
   164H     0.24760  0.44595   0.752  0.000  0.000
   165N    -0.31631 -0.67666   1.429  3.888  0.000
   166C     0.08652  0.09363   1.040  2.873  0.000
   167C     0.47181  0.57693   0.988  2.541  0.000
   168O    -0.60756 -0.67655   1.727  4.881  0.000
   169C     0.22769  0.18466   1.022  2.751  0.000
   170O    -0.59891 -0.81261   1.711  4.888  0.000
   171C    -0.09231 -0.23954   1.017  3.076  0.000
   172H     0.25699  0.46402   0.743  0.000  0.000
   173H     0.05598  0.14405   0.944  0.000  0.000
   174H     0.02896  0.10213   0.971  0.000  0.000
   175H     0.36172  0.54790   0.638  0.000  0.000
   176H     0.04082  0.10009   0.959  0.000  0.000
   177H     0.03675  0.09519   0.963  0.000  0.000
   178H     0.02458  0.08422   0.975  0.000  0.000
   179N    -0.32945 -0.68766   1.435  3.894  0.000
   180C     0.09567  0.09490   1.044  2.860  0.000
   181C     0.57831  0.64090   0.961  2.461  0.000
   182O    -0.67724 -0.75577   1.736  4.941  0.000
   183C    -0.03599 -0.13321   1.032  3.004  0.000
   184C    -0.00522 -0.02047   1.081  2.924  0.000
   185C    -0.03411 -0.08802   1.060  2.974  0.000
   186C    -0.03034 -0.08556   1.059  2.971  0.000
   187C    -0.08094 -0.13424   1.055  3.026  0.000
   188C    -0.08732 -0.14127   1.059  3.028  0.000
   189C     0.24929  0.25847   1.021  2.730  0.000
   190O    -0.55751 -0.76768   1.705  4.852  0.000
   191O    -0.67947 -0.74678   1.738  4.942  0.000
   192H     0.25798  0.47068   0.742  0.000  0.000
   193H     0.03894  0.11979   0.961  0.000  0.000
   194H     0.03125  0.09513   0.969  0.000  0.000
   195H     0.03917  0.10185   0.961  0.000  0.000
   196H     0.02708  0.09205   0.973  0.000  0.000
   197H     0.02814  0.08661   0.972  0.000  0.000
   198H     0.03450  0.09774   0.965  0.000  0.000
   199H     0.03459  0.09900   0.965  0.000  0.000
   200H     0.37456  0.56615   0.625  0.000  0.000
   201O    -0.73426 -1.21943   1.661  5.074  0.000
   202H     0.37605  0.62842   0.624  0.000  0.000
   203H     0.37659  0.62287   0.623  0.000  0.000
   204O    -0.71406 -1.19141   1.655  5.060  0.000
   205H     0.36824  0.60146   0.632  0.000  0.000
   206H     0.36916  0.60828   0.631  0.000  0.000
   207O    -0.72191 -1.18768   1.649  5.073  0.000
   208H     0.35314  0.58850   0.647  0.000  0.000
   209H     0.36061  0.60420   0.639  0.000  0.000
   210N    -0.19568 -0.80037   1.458  3.738  0.000
   211C     0.08621  0.07380   1.043  2.871  0.000
   212C     0.39955  0.37065   1.056  2.545  0.000
   213O    -0.49238 -0.58324   1.736  4.757  0.000
   214C    -0.08921 -0.18030   1.049  3.040  0.000
   215C     0.48078  0.57368   0.990  2.529  0.000
   216O    -0.62124 -0.68230   1.735  4.887  0.000
   217N    -0.39741 -0.85328   1.426  3.972  0.000
   218H     0.28476  0.48321   0.715  0.000  0.000
   219H     0.27760  0.47189   0.722  0.000  0.000
   220H     0.28278  0.48545   0.717  0.000  0.000
   221H     0.09016  0.16473   0.910  0.000  0.000
   222H     0.08637  0.15466   0.914  0.000  0.000
   223H     0.08918  0.15038   0.911  0.000  0.000
   224H     0.26833  0.45737   0.732  0.000  0.000
   225H     0.27337  0.47237   0.727  0.000  0.000
   226N    -0.52352 -1.03981   1.441  4.083  0.000
   227C     0.09217  0.08359   1.037  2.871  0.000
   228C     0.38924  0.36125   1.063  2.548  0.000
   229O    -0.52119 -0.59750   1.742  4.779  0.000
   230C    -0.00572 -0.07549   1.058  2.947  0.000
   231C    -0.10200 -0.25156   1.015  3.087  0.000
   232C    -0.09444 -0.24404   1.015  3.079  0.000
   233H     0.21836  0.41698   0.782  0.000  0.000
   234H     0.02723  0.09723   0.973  0.000  0.000
   235H     0.03089  0.09482   0.969  0.000  0.000
   236H     0.04013  0.09244   0.960  0.000  0.000
   237H     0.03308  0.08768   0.967  0.000  0.000
   238H     0.03219  0.08534   0.968  0.000  0.000
   239H     0.03782  0.09026   0.962  0.000  0.000
   240H     0.03177  0.08540   0.968  0.000  0.000
   241H     0.04537  0.10395   0.955  0.000  0.000
   242N    -0.52062 -1.02766   1.441  4.079  0.000
   243C     0.08273  0.07335   1.041  2.876  0.000
   244C     0.38611  0.36020   1.061  2.553  0.000
   245O    -0.52933 -0.58578   1.747  4.783  0.000
   246C     0.19456  0.11438   0.995  2.811  0.000
   247O    -0.59750 -0.81812   1.703  4.894  0.000
   248H     0.21726  0.40427   0.783  0.000  0.000
   249H     0.04567  0.11876   0.954  0.000  0.000
   250H     0.03024  0.09940   0.970  0.000  0.000
   251H     0.03671  0.10525   0.963  0.000  0.000
   252H     0.35916  0.53172   0.641  0.000  0.000
   253N    -0.52816 -1.03734   1.442  4.086  0.000
   254C     0.08320  0.07724   1.039  2.878  0.000
   255C     0.39507  0.36933   1.056  2.549  0.000
   256O    -0.51009 -0.59227   1.738  4.772  0.000
   257C     0.21996  0.17648   1.022  2.758  0.000
   258O    -0.60775 -0.81436   1.709  4.898  0.000
   259C    -0.10470 -0.25258   1.020  3.085  0.000
   260H     0.22457  0.42675   0.775  0.000  0.000
   261H     0.03492  0.10569   0.965  0.000  0.000
   262H     0.02853  0.09731   0.971  0.000  0.000
   263H     0.36493  0.53174   0.635  0.000  0.000
   264H     0.03563  0.09251   0.964  0.000  0.000
   265H     0.04026  0.09851   0.960  0.000  0.000
   266H     0.04451  0.10981   0.955  0.000  0.000
   267N    -0.53705 -1.04970   1.443  4.094  0.000
   268C     0.06570  0.01530   1.013  2.922  0.000
   269C     0.38213  0.35062   1.057  2.561  0.000
   270O    -0.53553 -0.61479   1.740  4.796  0.000
   271H     0.23004  0.43466   0.770  0.000  0.000
   272H     0.07678  0.15599   0.923  0.000  0.000
   273H     0.02548  0.09796   0.975  0.000  0.000
   274N    -0.53326 -1.03951   1.440  4.093  0.000
   275C     0.08982  0.08293   1.043  2.867  0.000
   276C     0.57397  0.63631   0.966  2.460  0.000
   277O    -0.69488 -0.77326   1.738  4.957  0.000
   278C    -0.04856 -0.14632   1.033  3.016  0.000
   279C    -0.01100 -0.02680   1.082  2.929  0.000
   280C    -0.04327 -0.09767   1.060  2.983  0.000
   281C    -0.03284 -0.08757   1.059  2.974  0.000
   282C    -0.08579 -0.13700   1.053  3.032  0.000
   283C    -0.08749 -0.14066   1.059  3.028  0.000
   284C     0.25109  0.26236   1.019  2.730  0.000
   285O    -0.57093 -0.76476   1.706  4.865  0.000
   286O    -0.68855 -0.75587   1.739  4.950  0.000
   287H     0.19650  0.38466   0.804  0.000  0.000
   288H     0.02016  0.09468   0.980  0.000  0.000
   289H     0.02300  0.08432   0.977  0.000  0.000
   290H     0.03216  0.09456   0.968  0.000  0.000
   291H     0.02934  0.08841   0.971  0.000  0.000
   292H     0.02788  0.08611   0.972  0.000  0.000
   293H     0.03630  0.09538   0.964  0.000  0.000
   294H     0.03549  0.09938   0.965  0.000  0.000
   295H     0.37172  0.56117   0.628  0.000  0.000
   296N    -0.53120 -1.03769   1.439  4.092  0.000
   297C     0.09121  0.08425   1.043  2.866  0.000
   298C     0.57589  0.63819   0.965  2.459  0.000
   299O    -0.69021 -0.76880   1.737  4.953  0.000
   300C    -0.04198 -0.14031   1.033  3.009  0.000
   301C    -0.00655 -0.02273   1.083  2.924  0.000
   302C    -0.03793 -0.09267   1.059  2.979  0.000
   303C    -0.03180 -0.08710   1.059  2.972  0.000
   304C    -0.08122 -0.13294   1.053  3.028  0.000
   305C    -0.09282 -0.14672   1.061  3.032  0.000
   306C     0.24851  0.25847   1.020  2.731  0.000
   307O    -0.56899 -0.76705   1.706  4.863  0.000
   308O    -0.68930 -0.75665   1.739  4.950  0.000
   309H     0.19406  0.38246   0.806  0.000  0.000
   310H     0.01766  0.09218   0.982  0.000  0.000
   311H     0.02298  0.08537   0.977  0.000  0.000
   312H     0.03223  0.09486   0.968  0.000  0.000
   313H     0.02632  0.08598   0.974  0.000  0.000
   314H     0.02942  0.08787   0.971  0.000  0.000
   315H     0.03506  0.09461   0.965  0.000  0.000
   316H     0.03682  0.10116   0.963  0.000  0.000
   317H     0.37390  0.56372   0.626  0.000  0.000
   318N    -0.54612 -1.05331   1.441  4.105  0.000
   319C     0.08596  0.07958   1.042  2.872  0.000
   320C     0.57067  0.63436   0.964  2.466  0.000
   321O    -0.70024 -0.75264   1.743  4.957  0.000
   322C    -0.04091 -0.13894   1.032  3.009  0.000
   323C    -0.00290 -0.01876   1.085  2.918  0.000
   324C    -0.03186 -0.08669   1.062  2.970  0.000
   325C    -0.03816 -0.09256   1.060  2.978  0.000
   326C    -0.08104 -0.13442   1.056  3.025  0.000
   327C    -0.09597 -0.14931   1.060  3.036  0.000
   328C     0.24327  0.25253   1.019  2.738  0.000
   329O    -0.54948 -0.75840   1.704  4.846  0.000
   330O    -0.71709 -0.78135   1.741  4.976  0.000
   331H     0.21507  0.42143   0.785  0.000  0.000
   332H     0.00595  0.07938   0.994  0.000  0.000
   333H     0.02737  0.09116   0.973  0.000  0.000
   334H     0.02852  0.09092   0.971  0.000  0.000
   335H     0.03379  0.09850   0.966  0.000  0.000
   336H     0.03386  0.09151   0.966  0.000  0.000
   337H     0.03736  0.10055   0.963  0.000  0.000
   338H     0.04331  0.10268   0.957  0.000  0.000
   339H     0.37764  0.54617   0.622  0.000  0.000
   340N    -0.53595 -1.04190   1.441  4.095  0.000
   341C     0.08602  0.07949   1.043  2.871  0.000
   342C     0.57393  0.63629   0.965  2.461  0.000
   343O    -0.68601 -0.76458   1.736  4.950  0.000
   344C    -0.04283 -0.14108   1.034  3.009  0.000
   345C    -0.00565 -0.02171   1.084  2.921  0.000
   346C    -0.03569 -0.09039   1.060  2.976  0.000
   347C    -0.03462 -0.08945   1.061  2.974  0.000
   348C    -0.07775 -0.12944   1.053  3.025  0.000
   349C    -0.10185 -0.15521   1.062  3.040  0.000
   350C     0.24593  0.25598   1.019  2.735  0.000
   351O    -0.55936 -0.75673   1.705  4.854  0.000
   352O    -0.69052 -0.75755   1.739  4.952  0.000
   353H     0.19825  0.38665   0.802  0.000  0.000
   354H     0.01861  0.09221   0.981  0.000  0.000
   355H     0.02761  0.09000   0.972  0.000  0.000
   356H     0.03592  0.09853   0.964  0.000  0.000
   357H     0.03054  0.09020   0.969  0.000  0.000
   358H     0.03660  0.09446   0.963  0.000  0.000
   359H     0.03968  0.09923   0.960  0.000  0.000
   360H     0.04703  0.10642   0.953  0.000  0.000
   361H     0.38135  0.54877   0.619  0.000  0.000
   362O    -0.73322 -1.21840   1.660  5.073  0.000
   363H     0.37512  0.62751   0.625  0.000  0.000
   364H     0.37518  0.62149   0.625  0.000  0.000
   365O    -0.74567 -1.21272   1.657  5.088  0.000
   366H     0.37016  0.62017   0.630  0.000  0.000
   367H     0.36140  0.60742   0.639  0.000  0.000
   368O    -0.74446 -1.20935   1.658  5.086  0.000
   369H     0.38767  0.61350   0.612  0.000  0.000
   370H     0.37107  0.60879   0.629  0.000  0.000
   371O    -0.72730 -1.19954   1.657  5.070  0.000
   372H     0.37832  0.60698   0.622  0.000  0.000
   373H     0.37336  0.61172   0.627  0.000  0.000
   374O    -0.71519 -1.19254   1.655  5.060  0.000
   375H     0.36921  0.60244   0.631  0.000  0.000
   376H     0.36988  0.60900   0.630  0.000  0.000
   377O    -0.72368 -1.19945   1.658  5.066  0.000
   378H     0.37508  0.60484   0.625  0.000  0.000
   379H     0.37627  0.61490   0.624  0.000  0.000
   380O    -0.71299 -1.18937   1.654  5.059  0.000
   381H     0.36541  0.59843   0.635  0.000  0.000
   382H     0.36806  0.60471   0.632  0.000  0.000
   383O    -0.74138 -1.19479   1.651  5.091  0.000
   384H     0.35780  0.58725   0.642  0.000  0.000
   385H     0.35954  0.59455   0.640  0.000  0.000
   386O    -0.72361 -1.19730   1.656  5.067  0.000
   387H     0.37498  0.60429   0.625  0.000  0.000
   388H     0.37434  0.61266   0.626  0.000  0.000
   389O    -0.72147 -1.18724   1.649  5.073  0.000
   390H     0.35373  0.58910   0.646  0.000  0.000
   391H     0.35872  0.60232   0.641  0.000  0.000
   392O    -0.72135 -1.18713   1.649  5.072  0.000
   393H     0.35374  0.58910   0.646  0.000  0.000
   394H     0.35927  0.60287   0.641  0.000  0.000
   395O    -0.72230 -1.18806   1.649  5.073  0.000
   396H     0.35448  0.58985   0.646  0.000  0.000
   397H     0.35974  0.60333   0.640  0.000  0.000
   398O    -0.73196 -1.19159   1.649  5.082  0.000
   399H     0.35624  0.59151   0.644  0.000  0.000
   400H     0.36179  0.60431   0.638  0.000  0.000
   401O    -0.72287 -1.18778   1.649  5.074  0.000
   402H     0.35318  0.58843   0.647  0.000  0.000
   403H     0.35994  0.60352   0.640  0.000  0.000
   404O    -0.73727 -1.20176   1.654  5.083  0.000
   405H     0.36267  0.59769   0.637  0.000  0.000
   406H     0.36365  0.60639   0.636  0.000  0.000
   407O    -0.73725 -1.19813   1.653  5.084  0.000
   408H     0.36790  0.59497   0.632  0.000  0.000
   409H     0.36627  0.60881   0.634  0.000  0.000
   410N    -0.20745 -0.80653   1.461  3.747  0.000
   411C     0.07782  0.07257   1.046  2.876  0.000
   412C     0.47234  0.57497   0.984  2.543  0.000
   413O    -0.60660 -0.65641   1.731  4.875  0.000
   414C    -0.10386 -0.19401   1.051  3.053  0.000
   415C     0.48157  0.57448   0.990  2.528  0.000
   416O    -0.61997 -0.67573   1.735  4.885  0.000
   417N    -0.40328 -0.85586   1.426  3.977  0.000
   418H     0.29501  0.48916   0.705  0.000  0.000
   419H     0.28866  0.47659   0.711  0.000  0.000
   420H     0.28248  0.46347   0.718  0.000  0.000
   421H     0.09385  0.18237   0.906  0.000  0.000
   422H     0.08057  0.14498   0.919  0.000  0.000
   423H     0.09057  0.15431   0.909  0.000  0.000
   424H     0.28640  0.47386   0.714  0.000  0.000
   425H     0.27385  0.45951   0.726  0.000  0.000
   426N    -0.30997 -0.67922   1.426  3.884  0.000
   427C     0.08952  0.08745   1.040  2.871  0.000
   428C     0.38483  0.35767   1.063  2.552  0.000
   429O    -0.51049 -0.57457   1.745  4.766  0.000
   430C    -0.00171 -0.07035   1.058  2.944  0.000
   431C    -0.10199 -0.25151   1.016  3.086  0.000
   432C    -0.08785 -0.23603   1.013  3.075  0.000
   433H     0.26546  0.47037   0.735  0.000  0.000
   434H     0.06263  0.13932   0.937  0.000  0.000
   435H     0.03809  0.10207   0.962  0.000  0.000
   436H     0.04796  0.10026   0.952  0.000  0.000
   437H     0.04010  0.09470   0.960  0.000  0.000
   438H     0.03875  0.09192   0.961  0.000  0.000
   439H     0.04021  0.09271   0.960  0.000  0.000
   440H     0.03592  0.09032   0.964  0.000  0.000
   441H     0.04265  0.10293   0.957  0.000  0.000
   442N    -0.19631 -0.80124   1.457  3.739  0.000
   443C     0.08153  0.07628   1.044  2.874  0.000
   444C     0.47831  0.57995   0.985  2.536  0.000
   445O    -0.59158 -0.67163   1.725  4.866  0.000
   446C    -0.08995 -0.18021   1.047  3.043  0.000
   447C     0.47827  0.57071   0.991  2.531  0.000
   448O    -0.63934 -0.71145   1.734  4.906  0.000
   449N    -0.40658 -0.86844   1.433  3.974  0.000
   450H     0.27979  0.47868   0.720  0.000  0.000
   451H     0.27477  0.46938   0.725  0.000  0.000
   452H     0.27943  0.48219   0.721  0.000  0.000
   453H     0.07671  0.16534   0.923  0.000  0.000
   454H     0.07684  0.14587   0.923  0.000  0.000
   455H     0.07417  0.13855   0.926  0.000  0.000
   456H     0.28301  0.50286   0.717  0.000  0.000
   457H     0.25958  0.45983   0.740  0.000  0.000
   458N    -0.30970 -0.67903   1.427  3.883  0.000
   459C     0.09368  0.09171   1.039  2.867  0.000
   460C     0.38949  0.36267   1.061  2.549  0.000
   461O    -0.52645 -0.58327   1.748  4.779  0.000
   462C    -0.00197 -0.07043   1.057  2.945  0.000
   463C    -0.09321 -0.24320   1.014  3.079  0.000
   464C    -0.07798 -0.22719   1.013  3.064  0.000
   465H     0.25980  0.46434   0.740  0.000  0.000
   466H     0.06492  0.14733   0.935  0.000  0.000
   467H     0.03287  0.09645   0.967  0.000  0.000
   468H     0.04225  0.09477   0.958  0.000  0.000
   469H     0.03499  0.08971   0.965  0.000  0.000
   470H     0.03942  0.09423   0.961  0.000  0.000
   471H     0.03095  0.08406   0.969  0.000  0.000
   472H     0.03620  0.09475   0.964  0.000  0.000
   473H     0.03703  0.09876   0.963  0.000  0.000
   474N    -0.19648 -0.80142   1.457  3.739  0.000
   475C     0.08119  0.07593   1.044  2.875  0.000
   476C     0.47790  0.57962   0.985  2.537  0.000
   477O    -0.59372 -0.67385   1.725  4.869  0.000
   478C    -0.08956 -0.17993   1.048  3.042  0.000
   479C     0.47932  0.57167   0.991  2.530  0.000
   480O    -0.64294 -0.71506   1.734  4.909  0.000
   481N    -0.40543 -0.86867   1.433  3.972  0.000
   482H     0.27563  0.47450   0.724  0.000  0.000
   483H     0.27437  0.46897   0.726  0.000  0.000
   484H     0.27736  0.48011   0.723  0.000  0.000
   485H     0.07739  0.16601   0.923  0.000  0.000
   486H     0.07792  0.14698   0.922  0.000  0.000
   487H     0.07606  0.14114   0.924  0.000  0.000
   488H     0.28441  0.50433   0.716  0.000  0.000
   489H     0.26243  0.46313   0.738  0.000  0.000
   490N    -0.31105 -0.68074   1.427  3.884  0.000
   491C     0.08835  0.09347   1.041  2.870  0.000
   492C     0.46529  0.57043   0.996  2.539  0.000
   493O    -0.61903 -0.67772   1.733  4.886  0.000
   494C    -0.00211 -0.07043   1.056  2.946  0.000
   495C    -0.08819 -0.23824   1.013  3.075  0.000
   496C    -0.07868 -0.22796   1.014  3.065  0.000
   497H     0.25793  0.46311   0.742  0.000  0.000
   498H     0.06217  0.14975   0.938  0.000  0.000
   499H     0.02704  0.09118   0.973  0.000  0.000
   500H     0.03800  0.09076   0.962  0.000  0.000
   501H     0.02771  0.08463   0.972  0.000  0.000
   502H     0.03582  0.09140   0.964  0.000  0.000
   503H     0.03026  0.08337   0.970  0.000  0.000
   504H     0.03560  0.09417   0.964  0.000  0.000
   505H     0.03753  0.09928   0.962  0.000  0.000
   506N    -0.31864 -0.68681   1.427  3.892  0.000
   507C     0.06271  0.02705   1.015  2.922  0.000
   508C     0.47134  0.57184   0.996  2.533  0.000
   509O    -0.61065 -0.66950   1.733  4.877  0.000
   510H     0.26374  0.46779   0.736  0.000  0.000
   511H     0.08647  0.17094   0.914  0.000  0.000
   512H     0.06015  0.13567   0.940  0.000  0.000
   513N    -0.32655 -0.67850   1.428  3.898  0.000
   514C     0.08544  0.08928   1.043  2.871  0.000
   515C     0.47057  0.57551   0.992  2.537  0.000
   516O    -0.59032 -0.65692   1.729  4.861  0.000
   517C     0.19786  0.11782   0.996  2.806  0.000
   518O    -0.59805 -0.81785   1.704  4.894  0.000
   519H     0.25235  0.45412   0.748  0.000  0.000
   520H     0.05845  0.14130   0.942  0.000  0.000
   521H     0.04380  0.11578   0.956  0.000  0.000
   522H     0.04663  0.11733   0.953  0.000  0.000
   523H     0.36095  0.53356   0.639  0.000  0.000
   524N    -0.31501 -0.67282   1.424  3.891  0.000
   525C     0.10683  0.11165   1.037  2.857  0.000
   526C     0.46746  0.57195   0.990  2.543  0.000
   527O    -0.60715 -0.66415   1.731  4.876  0.000
   528C    -0.09210 -0.18191   1.049  3.043  0.000
   529C     0.48830  0.58281   0.989  2.523  0.000
   530O    -0.59534 -0.66960   1.722  4.874  0.000
   531N    -0.39540 -0.85268   1.424  3.972  0.000
   532H     0.24885  0.44746   0.751  0.000  0.000
   533H     0.07024  0.15515   0.930  0.000  0.000
   534H     0.05241  0.12083   0.948  0.000  0.000
   535H     0.06678  0.13162   0.933  0.000  0.000
   536H     0.26729  0.46783   0.733  0.000  0.000
   537H     0.25255  0.44165   0.747  0.000  0.000
   538N    -0.32224 -0.68406   1.431  3.891  0.000
   539C     0.08024  0.08745   1.041  2.879  0.000
   540C     0.47389  0.57931   0.989  2.537  0.000
   541O    -0.60213 -0.67219   1.728  4.874  0.000
   542C     0.22763  0.18474   1.017  2.755  0.000
   543O    -0.59394 -0.82330   1.711  4.883  0.000
   544C    -0.10311 -0.25063   1.019  3.084  0.000
   545H     0.26137  0.47013   0.739  0.000  0.000
   546H     0.05994  0.15032   0.940  0.000  0.000
   547H     0.01643  0.08774   0.984  0.000  0.000
   548H     0.36759  0.55984   0.632  0.000  0.000
   549H     0.03331  0.09102   0.967  0.000  0.000
   550H     0.03085  0.08933   0.969  0.000  0.000
   551H     0.04699  0.11254   0.953  0.000  0.000
   552N    -0.31652 -0.67525   1.429  3.887  0.000
   553C     0.08500  0.08453   1.048  2.867  0.000
   554C     0.57577  0.63882   0.965  2.460  0.000
   555O    -0.66739 -0.75156   1.729  4.939  0.000
   556C    -0.05206 -0.14853   1.038  3.014  0.000
   557C    -0.01278 -0.02737   1.083  2.930  0.000
   558C    -0.04081 -0.09405   1.063  2.978  0.000
   559C    -0.03283 -0.08718   1.060  2.972  0.000
   560C    -0.08476 -0.13699   1.056  3.029  0.000
   561C    -0.08488 -0.13807   1.062  3.023  0.000
   562C     0.25235  0.26247   1.020  2.727  0.000
   563O    -0.56808 -0.76418   1.708  4.860  0.000
   564O    -0.70063 -0.76059   1.744  4.957  0.000
   565H     0.25058  0.45510   0.749  0.000  0.000
   566H     0.04653  0.12762   0.953  0.000  0.000
   567H     0.03765  0.09838   0.962  0.000  0.000
   568H     0.04271  0.10184   0.957  0.000  0.000
   569H     0.03110  0.09468   0.969  0.000  0.000
   570H     0.03060  0.08874   0.969  0.000  0.000
   571H     0.03788  0.09799   0.962  0.000  0.000
   572H     0.03899  0.10251   0.961  0.000  0.000
   573H     0.37361  0.56384   0.626  0.000  0.000
   574N    -0.20240 -0.80444   1.459  3.744  0.000
   575C     0.07411  0.06883   1.046  2.880  0.000
   576C     0.46977  0.57159   0.985  2.546  0.000
   577O    -0.58683 -0.66683   1.724  4.863  0.000
   578C    -0.09173 -0.18210   1.048  3.044  0.000
   579C     0.48011  0.57353   0.987  2.533  0.000
   580O    -0.63258 -0.67746   1.740  4.893  0.000
   581N    -0.40310 -0.85777   1.425  3.978  0.000
   582H     0.28258  0.46405   0.717  0.000  0.000
   583H     0.28625  0.47716   0.714  0.000  0.000
   584H     0.29714  0.49927   0.703  0.000  0.000
   585H     0.08249  0.16069   0.918  0.000  0.000
   586H     0.08360  0.15260   0.916  0.000  0.000
   587H     0.07882  0.14315   0.921  0.000  0.000
   588H     0.27514  0.46291   0.725  0.000  0.000
   589H     0.26596  0.46533   0.734  0.000  0.000
   590N    -0.31182 -0.67711   1.427  3.885  0.000
   591C     0.08466  0.08997   1.042  2.873  0.000
   592C     0.46099  0.56654   0.994  2.545  0.000
   593O    -0.62742 -0.66978   1.740  4.888  0.000
   594C    -0.00665 -0.07445   1.056  2.951  0.000
   595C    -0.09285 -0.24200   1.013  3.080  0.000
   596C    -0.08864 -0.23690   1.014  3.075  0.000
   597H     0.26407  0.45820   0.736  0.000  0.000
   598H     0.06449  0.15204   0.936  0.000  0.000
   599H     0.03366  0.09716   0.966  0.000  0.000
   600H     0.04293  0.09528   0.957  0.000  0.000
   601H     0.03419  0.09020   0.966  0.000  0.000
   602H     0.03776  0.09277   0.962  0.000  0.000
   603H     0.03777  0.09033   0.962  0.000  0.000
   604H     0.03860  0.09687   0.961  0.000  0.000
   605H     0.03200  0.09138   0.968  0.000  0.000
   606N    -0.32353 -0.69072   1.427  3.897  0.000
   607C     0.06048  0.02504   1.015  2.925  0.000
   608C     0.47456  0.57529   0.994  2.532  0.000
   609O    -0.61806 -0.66239   1.737  4.881  0.000
   610H     0.26222  0.46614   0.738  0.000  0.000
   611H     0.08567  0.16535   0.914  0.000  0.000
   612H     0.06447  0.13693   0.936  0.000  0.000
   613N    -0.32515 -0.67633   1.427  3.898  0.000
   614C     0.08795  0.08490   1.042  2.870  0.000
   615C     0.38403  0.35823   1.061  2.555  0.000
   616O    -0.49745 -0.55876   1.744  4.754  0.000
   617C     0.19582  0.11678   0.994  2.810  0.000
   618O    -0.60688 -0.81612   1.704  4.903  0.000
   619H     0.24961  0.45114   0.750  0.000  0.000
   620H     0.07018  0.14693   0.930  0.000  0.000
   621H     0.03844  0.10964   0.962  0.000  0.000
   622H     0.04543  0.11149   0.955  0.000  0.000
   623H     0.37457  0.53996   0.625  0.000  0.000
   624N    -0.20735 -0.81051   1.459  3.748  0.000
   625C     0.08004  0.07473   1.045  2.875  0.000
   626C     0.47459  0.57646   0.985  2.541  0.000
   627O    -0.59320 -0.66533   1.727  4.866  0.000
   628C    -0.09098 -0.18145   1.048  3.043  0.000
   629C     0.47902  0.57135   0.990  2.531  0.000
   630O    -0.63615 -0.70830   1.733  4.903  0.000
   631N    -0.40615 -0.86932   1.432  3.974  0.000
   632H     0.28564  0.48429   0.714  0.000  0.000
   633H     0.28129  0.47114   0.719  0.000  0.000
   634H     0.27579  0.47285   0.724  0.000  0.000
   635H     0.08496  0.17360   0.915  0.000  0.000
   636H     0.07474  0.14066   0.925  0.000  0.000
   637H     0.07807  0.14310   0.922  0.000  0.000
   638H     0.28375  0.50369   0.716  0.000  0.000
   639H     0.25889  0.45952   0.741  0.000  0.000
   640N    -0.31127 -0.68094   1.426  3.885  0.000
   641C     0.08936  0.09447   1.041  2.870  0.000
   642C     0.46715  0.57209   0.997  2.536  0.000
   643O    -0.60973 -0.67029   1.733  4.877  0.000
   644C    -0.00192 -0.07077   1.056  2.946  0.000
   645C    -0.09220 -0.24206   1.013  3.079  0.000
   646C    -0.08052 -0.22988   1.014  3.067  0.000
   647H     0.25873  0.46391   0.741  0.000  0.000
   648H     0.06203  0.14954   0.938  0.000  0.000
   649H     0.02888  0.09336   0.971  0.000  0.000
   650H     0.03808  0.09116   0.962  0.000  0.000
   651H     0.03171  0.08791   0.968  0.000  0.000
   652H     0.03435  0.08936   0.966  0.000  0.000
   653H     0.02884  0.08261   0.971  0.000  0.000
   654H     0.03578  0.09411   0.964  0.000  0.000
   655H     0.03896  0.10079   0.961  0.000  0.000
   656N    -0.31998 -0.68825   1.426  3.894  0.000
   657C     0.06388  0.02718   1.015  2.921  0.000
   658C     0.47388  0.57352   0.994  2.532  0.000
   659O    -0.58954 -0.67172   1.727  4.863  0.000
   660H     0.26706  0.46963   0.733  0.000  0.000
   661H     0.07448  0.14465   0.926  0.000  0.000
   662H     0.07195  0.14527   0.928  0.000  0.000
   663N    -0.31834 -0.67048   1.429  3.890  0.000
   664C     0.08745  0.09128   1.043  2.869  0.000
   665C     0.46765  0.57256   0.992  2.540  0.000
   666O    -0.59781 -0.66445   1.730  4.868  0.000
   667C     0.20034  0.12028   0.996  2.804  0.000
   668O    -0.59653 -0.81642   1.703  4.893  0.000
   669H     0.25555  0.45728   0.744  0.000  0.000
   670H     0.05913  0.14284   0.941  0.000  0.000
   671H     0.04060  0.11258   0.959  0.000  0.000
   672H     0.04563  0.11654   0.954  0.000  0.000
   673H     0.36108  0.53373   0.639  0.000  0.000
   674N    -0.32231 -0.68195   1.428  3.894  0.000
   675C     0.11096  0.11584   1.035  2.854  0.000
   676C     0.47156  0.57593   0.990  2.539  0.000
   677O    -0.60758 -0.66945   1.729  4.879  0.000
   678C    -0.08810 -0.17770   1.047  3.041  0.000
   679C     0.48825  0.58278   0.991  2.521  0.000
   680O    -0.61289 -0.68659   1.723  4.890  0.000
   681N    -0.38623 -0.84440   1.423  3.963  0.000
   682H     0.26128  0.47610   0.739  0.000  0.000
   683H     0.06306  0.14799   0.937  0.000  0.000
   684H     0.06160  0.13493   0.938  0.000  0.000
   685H     0.05884  0.12374   0.941  0.000  0.000
   686H     0.25822  0.44854   0.742  0.000  0.000
   687H     0.25946  0.45957   0.741  0.000  0.000
   688N    -0.32128 -0.68313   1.431  3.890  0.000
   689C     0.07999  0.08720   1.041  2.879  0.000
   690C     0.47327  0.57868   0.990  2.537  0.000
   691O    -0.60817 -0.67819   1.728  4.880  0.000
   692C     0.22853  0.18564   1.017  2.755  0.000
   693O    -0.59281 -0.82230   1.711  4.882  0.000
   694C    -0.10565 -0.25316   1.020  3.086  0.000
   695H     0.25953  0.46830   0.740  0.000  0.000
   696H     0.06472  0.15515   0.935  0.000  0.000
   697H     0.01686  0.08818   0.983  0.000  0.000
   698H     0.37029  0.56255   0.630  0.000  0.000
   699H     0.03475  0.09245   0.965  0.000  0.000
   700H     0.02934  0.08782   0.971  0.000  0.000
   701H     0.04594  0.11139   0.954  0.000  0.000
   702N    -0.31276 -0.67186   1.430  3.883  0.000
   703C     0.08708  0.08658   1.047  2.865  0.000
   704C     0.57814  0.64117   0.965  2.457  0.000
   705O    -0.66656 -0.75231   1.728  4.938  0.000
   706C    -0.04524 -0.14211   1.038  3.008  0.000
   707C    -0.00911 -0.02394   1.084  2.925  0.000
   708C    -0.03573 -0.08947   1.063  2.972  0.000
   709C    -0.03573 -0.09008   1.060  2.976  0.000
   710C    -0.07697 -0.12992   1.057  3.020  0.000
   711C    -0.08837 -0.14198   1.062  3.027  0.000
   712C     0.25342  0.26224   1.021  2.726  0.000
   713O    -0.55652 -0.76817   1.708  4.849  0.000
   714O    -0.70187 -0.76186   1.744  4.958  0.000
   715H     0.25631  0.46131   0.744  0.000  0.000
   716H     0.04273  0.12383   0.957  0.000  0.000
   717H     0.04032  0.10372   0.960  0.000  0.000
   718H     0.03961  0.09895   0.960  0.000  0.000
   719H     0.03042  0.09483   0.970  0.000  0.000
   720H     0.02804  0.08597   0.972  0.000  0.000
   721H     0.03836  0.10060   0.962  0.000  0.000
   722H     0.03833  0.10044   0.962  0.000  0.000
   723H     0.37747  0.56928   0.623  0.000  0.000
   724N    -0.19431 -0.79591   1.457  3.737  0.000
   725C     0.08056  0.07527   1.045  2.874  0.000
   726C     0.47853  0.58016   0.985  2.537  0.000
   727O    -0.59640 -0.67639   1.725  4.871  0.000
   728C    -0.09749 -0.18769   1.049  3.048  0.000
   729C     0.47870  0.57097   0.991  2.530  0.000
   730O    -0.62907 -0.70116   1.733  4.896  0.000
   731N    -0.40415 -0.86547   1.431  3.973  0.000
   732H     0.28767  0.48220   0.712  0.000  0.000
   733H     0.28168  0.47523   0.718  0.000  0.000
   734H     0.27345  0.46036   0.727  0.000  0.000
   735H     0.09006  0.17866   0.910  0.000  0.000
   736H     0.07532  0.14293   0.925  0.000  0.000
   737H     0.08539  0.14983   0.915  0.000  0.000
   738H     0.29380  0.51330   0.706  0.000  0.000
   739H     0.25827  0.44547   0.742  0.000  0.000
   740N    -0.30326 -0.67354   1.427  3.876  0.000
   741C     0.09158  0.08943   1.040  2.868  0.000
   742C     0.39209  0.36445   1.065  2.543  0.000
   743O    -0.50990 -0.58619   1.742  4.768  0.000
   744C    -0.00062 -0.06996   1.058  2.942  0.000
   745C    -0.09622 -0.24639   1.015  3.081  0.000
   746C    -0.08052 -0.22990   1.014  3.066  0.000
   747H     0.26559  0.47057   0.734  0.000  0.000
   748H     0.06510  0.14745   0.935  0.000  0.000
   749H     0.03436  0.09869   0.966  0.000  0.000
   750H     0.04325  0.09627   0.957  0.000  0.000
   751H     0.03781  0.09256   0.962  0.000  0.000
   752H     0.03688  0.09155   0.963  0.000  0.000
   753H     0.03241  0.08618   0.968  0.000  0.000
   754H     0.03459  0.09293   0.965  0.000  0.000
   755H     0.04056  0.10238   0.959  0.000  0.000
   756N    -0.19790 -0.80284   1.458  3.740  0.000
   757C     0.08226  0.07701   1.044  2.874  0.000
   758C     0.47714  0.57886   0.985  2.538  0.000
   759O    -0.59733 -0.67747   1.725  4.872  0.000
   760C    -0.08924 -0.17961   1.047  3.042  0.000
   761C     0.47969  0.57204   0.990  2.530  0.000
   762O    -0.63687 -0.70902   1.734  4.903  0.000
   763N    -0.40666 -0.86983   1.432  3.974  0.000
   764H     0.27989  0.47878   0.720  0.000  0.000
   765H     0.27347  0.46806   0.727  0.000  0.000
   766H     0.27934  0.48209   0.721  0.000  0.000
   767H     0.08047  0.16914   0.920  0.000  0.000
   768H     0.07545  0.14451   0.925  0.000  0.000
   769H     0.07234  0.13742   0.928  0.000  0.000
   770H     0.28323  0.50313   0.717  0.000  0.000
   771H     0.25713  0.45768   0.743  0.000  0.000
   772N    -0.30879 -0.67846   1.426  3.882  0.000
   773C     0.08608  0.09120   1.042  2.872  0.000
   774C     0.46461  0.56990   0.996  2.540  0.000
   775O    -0.61830 -0.66803   1.737  4.881  0.000
   776C    -0.00184 -0.07076   1.056  2.946  0.000
   777C    -0.09369 -0.24388   1.015  3.079  0.000
   778C    -0.07842 -0.22849   1.014  3.064  0.000
   779H     0.25835  0.46350   0.742  0.000  0.000
   780H     0.06014  0.14768   0.940  0.000  0.000
   781H     0.02843  0.09289   0.972  0.000  0.000
   782H     0.04084  0.09408   0.959  0.000  0.000
   783H     0.03352  0.08958   0.966  0.000  0.000
   784H     0.03583  0.09097   0.964  0.000  0.000
   785H     0.02906  0.08328   0.971  0.000  0.000
   786H     0.03375  0.09234   0.966  0.000  0.000
   787H     0.03778  0.09963   0.962  0.000  0.000
   788N    -0.32566 -0.69329   1.426  3.899  0.000
   789C     0.06340  0.02754   1.014  2.923  0.000
   790C     0.47443  0.57509   0.993  2.532  0.000
   791O    -0.61558 -0.66003   1.737  4.879  0.000
   792H     0.26729  0.46985   0.733  0.000  0.000
   793H     0.07590  0.14512   0.924  0.000  0.000
   794H     0.07248  0.14473   0.928  0.000  0.000
   795N    -0.32294 -0.67420   1.428  3.895  0.000
   796C     0.08784  0.08477   1.042  2.870  0.000
   797C     0.38428  0.35856   1.062  2.554  0.000
   798O    -0.50508 -0.56464   1.744  4.761  0.000
   799C     0.19823  0.11862   0.994  2.808  0.000
   800O    -0.60174 -0.81485   1.703  4.899  0.000
   801H     0.25392  0.45542   0.746  0.000  0.000
   802H     0.07090  0.14766   0.929  0.000  0.000
   803H     0.04062  0.11202   0.959  0.000  0.000
   804H     0.04365  0.11063   0.956  0.000  0.000
   805H     0.35728  0.52929   0.643  0.000  0.000
   806N    -0.53443 -1.04586   1.440  4.094  0.000
   807C     0.08707  0.08588   1.038  2.874  0.000
   808C     0.46569  0.57068   0.998  2.537  0.000
   809O    -0.62669 -0.67098   1.741  4.886  0.000
   810C    -0.00952 -0.07912   1.057  2.953  0.000
   811C    -0.09030 -0.24083   1.014  3.077  0.000
   812C    -0.09348 -0.24433   1.016  3.077  0.000
   813H     0.21328  0.40110   0.787  0.000  0.000
   814H     0.02575  0.10097   0.974  0.000  0.000
   815H     0.02653  0.09029   0.973  0.000  0.000
   816H     0.03574  0.08918   0.964  0.000  0.000
   817H     0.02564  0.08258   0.974  0.000  0.000
   818H     0.02914  0.08323   0.971  0.000  0.000
   819H     0.03334  0.08726   0.967  0.000  0.000
   820H     0.03430  0.08818   0.966  0.000  0.000
   821H     0.04190  0.09884   0.958  0.000  0.000
   822N    -0.33428 -0.70178   1.424  3.911  0.000
   823C     0.06233  0.02592   1.016  2.921  0.000
   824C     0.47616  0.57651   0.995  2.529  0.000
   825O    -0.60239 -0.67314   1.729  4.873  0.000
   826H     0.25081  0.44410   0.749  0.000  0.000
   827H     0.08542  0.16972   0.915  0.000  0.000
   828H     0.05871  0.13499   0.941  0.000  0.000
   829N    -0.32326 -0.67385   1.427  3.896  0.000
   830C     0.08228  0.08639   1.043  2.874  0.000
   831C     0.46482  0.57071   0.992  2.543  0.000
   832O    -0.60981 -0.65470   1.736  4.873  0.000
   833C     0.19810  0.11958   0.992  2.809  0.000
   834O    -0.61095 -0.81961   1.705  4.906  0.000
   835H     0.25130  0.45289   0.749  0.000  0.000
   836H     0.06359  0.14458   0.936  0.000  0.000
   837H     0.03869  0.10803   0.961  0.000  0.000
   838H     0.03927  0.10544   0.961  0.000  0.000
   839H     0.38171  0.54638   0.618  0.000  0.000
   840N    -0.32085 -0.67802   1.424  3.897  0.000
   841C     0.10649  0.11140   1.036  2.858  0.000
   842C     0.46637  0.57136   0.990  2.544  0.000
   843O    -0.62125 -0.66339   1.737  4.885  0.000
   844C    -0.09314 -0.18296   1.049  3.044  0.000
   845C     0.48875  0.58326   0.989  2.523  0.000
   846O    -0.59575 -0.67002   1.722  4.874  0.000
   847N    -0.38719 -0.84598   1.422  3.965  0.000
   848H     0.25009  0.44866   0.750  0.000  0.000
   849H     0.06690  0.15177   0.933  0.000  0.000
   850H     0.05490  0.12340   0.945  0.000  0.000
   851H     0.06774  0.13258   0.932  0.000  0.000
   852H     0.26805  0.46940   0.732  0.000  0.000
   853H     0.24568  0.43677   0.754  0.000  0.000
   854N    -0.32504 -0.68612   1.430  3.895  0.000
   855C     0.08005  0.08766   1.040  2.880  0.000
   856C     0.47240  0.57803   0.988  2.539  0.000
   857O    -0.59803 -0.66771   1.728  4.871  0.000
   858C     0.22176  0.18046   1.018  2.760  0.000
   859O    -0.60926 -0.81242   1.709  4.900  0.000
   860C    -0.11583 -0.26232   1.021  3.095  0.000
   861H     0.26333  0.47207   0.737  0.000  0.000
   862H     0.05775  0.14005   0.942  0.000  0.000
   863H     0.02874  0.09848   0.971  0.000  0.000
   864H     0.37721  0.54310   0.623  0.000  0.000
   865H     0.04678  0.10132   0.953  0.000  0.000
   866H     0.03882  0.09626   0.961  0.000  0.000
   867H     0.04741  0.11225   0.953  0.000  0.000
   868N    -0.31833 -0.67456   1.429  3.889  0.000
   869C     0.08168  0.08131   1.049  2.869  0.000
   870C     0.57125  0.63577   0.962  2.467  0.000
   871O    -0.70178 -0.74608   1.739  4.962  0.000
   872C    -0.05369 -0.15030   1.039  3.015  0.000
   873C    -0.01171 -0.02659   1.083  2.928  0.000
   874C    -0.04298 -0.09641   1.062  2.981  0.000
   875C    -0.02830 -0.08345   1.061  2.967  0.000
   876C    -0.08028 -0.13285   1.056  3.024  0.000
   877C    -0.08264 -0.13644   1.064  3.019  0.000
   878C     0.25160  0.26048   1.021  2.727  0.000
   879O    -0.55852 -0.77002   1.709  4.850  0.000
   880O    -0.70662 -0.76457   1.744  4.963  0.000
   881H     0.24825  0.44113   0.752  0.000  0.000
   882H     0.04726  0.12832   0.953  0.000  0.000
   883H     0.03964  0.09979   0.960  0.000  0.000
   884H     0.04773  0.10696   0.952  0.000  0.000
   885H     0.03004  0.08948   0.970  0.000  0.000
   886H     0.03462  0.09305   0.965  0.000  0.000
   887H     0.04316  0.10333   0.957  0.000  0.000
   888H     0.04413  0.10809   0.956  0.000  0.000
   889H     0.38152  0.57337   0.618  0.000  0.000
   890N    -0.53600 -1.04939   1.439  4.097  0.000
   891C     0.06180  0.01864   1.013  2.925  0.000
   892C     0.46539  0.56301   1.001  2.534  0.000
   893O    -0.59264 -0.67509   1.728  4.865  0.000
   894H     0.22360  0.40785   0.776  0.000  0.000
   895H     0.05550  0.12841   0.945  0.000  0.000
   896H     0.03755  0.11089   0.962  0.000  0.000
   897N    -0.33326 -0.68747   1.430  3.903  0.000
   898C     0.08576  0.08979   1.043  2.871  0.000
   899C     0.46421  0.57021   0.993  2.543  0.000
   900O    -0.62150 -0.66389   1.738  4.884  0.000
   901C     0.19877  0.12027   0.993  2.809  0.000
   902O    -0.59889 -0.81452   1.704  4.895  0.000
   903H     0.26415  0.45929   0.736  0.000  0.000
   904H     0.06010  0.14375   0.940  0.000  0.000
   905H     0.03912  0.10753   0.961  0.000  0.000
   906H     0.04083  0.10869   0.959  0.000  0.000
   907H     0.38181  0.54705   0.618  0.000  0.000
   908N    -0.32706 -0.68612   1.427  3.900  0.000
   909C     0.11252  0.11009   1.035  2.853  0.000
   910C     0.39122  0.36471   1.058  2.551  0.000
   911O    -0.51001 -0.58152   1.738  4.772  0.000
   912C    -0.09531 -0.18550   1.050  3.046  0.000
   913C     0.48238  0.57777   0.988  2.530  0.000
   914O    -0.62511 -0.66951   1.733  4.892  0.000
   915N    -0.39980 -0.85828   1.424  3.976  0.000
   916H     0.26410  0.47882   0.736  0.000  0.000
   917H     0.07417  0.14923   0.926  0.000  0.000
   918H     0.06842  0.13828   0.932  0.000  0.000
   919H     0.07366  0.13411   0.926  0.000  0.000
   920H     0.25820  0.45926   0.742  0.000  0.000
   921H     0.25236  0.45212   0.748  0.000  0.000
   922N    -0.52974 -1.04396   1.436  4.093  0.000
   923C     0.05810  0.01520   1.014  2.927  0.000
   924C     0.46189  0.55948   1.003  2.535  0.000
   925O    -0.60194 -0.68439   1.728  4.874  0.000
   926H     0.21275  0.39975   0.787  0.000  0.000
   927H     0.07069  0.15463   0.929  0.000  0.000
   928H     0.03152  0.10508   0.968  0.000  0.000
   929N    -0.33232 -0.68796   1.431  3.902  0.000
   930C     0.08616  0.09018   1.042  2.872  0.000
   931C     0.46388  0.56975   0.992  2.544  0.000
   932O    -0.61898 -0.66392   1.737  4.882  0.000
   933C     0.19918  0.12066   0.993  2.808  0.000
   934O    -0.60399 -0.81929   1.705  4.899  0.000
   935H     0.25719  0.45784   0.743  0.000  0.000
   936H     0.05293  0.13660   0.947  0.000  0.000
   937H     0.04114  0.11051   0.959  0.000  0.000
   938H     0.04003  0.10792   0.960  0.000  0.000
   939H     0.37979  0.54506   0.620  0.000  0.000
   940N    -0.32656 -0.68564   1.428  3.899  0.000
   941C     0.10997  0.11495   1.035  2.855  0.000
   942C     0.46974  0.57436   0.991  2.539  0.000
   943O    -0.61129 -0.67144   1.729  4.882  0.000
   944C    -0.09198 -0.18130   1.048  3.044  0.000
   945C     0.48784  0.58264   0.989  2.523  0.000
   946O    -0.60908 -0.68226   1.722  4.887  0.000
   947N    -0.38663 -0.84598   1.424  3.963  0.000
   948H     0.25993  0.47475   0.740  0.000  0.000
   949H     0.05844  0.14331   0.942  0.000  0.000
   950H     0.06107  0.13439   0.939  0.000  0.000
   951H     0.06051  0.12506   0.939  0.000  0.000
   952H     0.26086  0.46235   0.739  0.000  0.000
   953H     0.25127  0.45155   0.749  0.000  0.000
   954N    -0.32319 -0.68403   1.431  3.892  0.000
   955C     0.07662  0.08406   1.041  2.882  0.000
   956C     0.46710  0.57344   0.988  2.545  0.000
   957O    -0.62515 -0.67268   1.736  4.889  0.000
   958C     0.22118  0.17896   1.018  2.760  0.000
   959O    -0.59900 -0.80850   1.709  4.890  0.000
   960C    -0.11530 -0.26107   1.019  3.096  0.000
   961H     0.26116  0.46951   0.739  0.000  0.000
   962H     0.06333  0.15369   0.937  0.000  0.000
   963H     0.02508  0.09548   0.975  0.000  0.000
   964H     0.37272  0.53877   0.627  0.000  0.000
   965H     0.04500  0.09903   0.955  0.000  0.000
   966H     0.04080  0.09751   0.959  0.000  0.000
   967H     0.04285  0.10114   0.957  0.000  0.000
   968N    -0.32255 -0.67938   1.430  3.892  0.000
   969C     0.08372  0.08403   1.046  2.870  0.000
   970C     0.57098  0.63582   0.963  2.466  0.000
   971O    -0.70512 -0.74953   1.740  4.965  0.000
   972C    -0.04474 -0.14164   1.037  3.008  0.000
   973C    -0.01024 -0.02521   1.084  2.927  0.000
   974C    -0.03934 -0.09309   1.063  2.977  0.000
   975C    -0.03151 -0.08644   1.062  2.970  0.000
   976C    -0.07924 -0.13218   1.056  3.023  0.000
   977C    -0.08799 -0.14162   1.064  3.024  0.000
   978C     0.25141  0.26031   1.021  2.727  0.000
   979O    -0.55787 -0.76932   1.709  4.849  0.000
   980O    -0.71604 -0.77217   1.744  4.972  0.000
   981H     0.24842  0.45291   0.752  0.000  0.000
   982H     0.04229  0.12227   0.958  0.000  0.000
   983H     0.03609  0.09947   0.964  0.000  0.000
   984H     0.04209  0.10152   0.958  0.000  0.000
   985H     0.02664  0.09105   0.973  0.000  0.000
   986H     0.03410  0.09222   0.966  0.000  0.000
   987H     0.03735  0.09959   0.963  0.000  0.000
   988H     0.04544  0.10897   0.955  0.000  0.000
   989H     0.38101  0.57278   0.619  0.000  0.000
   990N    -0.53214 -1.03854   1.441  4.091  0.000
   991C     0.08332  0.08092   1.041  2.875  0.000
   992C     0.46882  0.57354   0.996  2.535  0.000
   993O    -0.61487 -0.67772   1.732  4.883  0.000
   994C     0.19989  0.11935   0.994  2.806  0.000
   995O    -0.59815 -0.81852   1.704  4.895  0.000
   996H     0.21394  0.40110   0.786  0.000  0.000
   997H     0.03492  0.11309   0.965  0.000  0.000
   998H     0.02992  0.10019   0.970  0.000  0.000
   999H     0.03092  0.10174   0.969  0.000  0.000
  1000H     0.35848  0.53041   0.642  0.000  0.000
  1001N    -0.32889 -0.68745   1.426  3.903  0.000
  1002C     0.10818  0.11294   1.034  2.858  0.000
  1003C     0.47054  0.57485   0.991  2.539  0.000
  1004O    -0.59835 -0.66021   1.728  4.870  0.000
  1005C    -0.09460 -0.18390   1.048  3.047  0.000
  1006C     0.48661  0.58215   0.988  2.526  0.000
  1007O    -0.63200 -0.67507   1.734  4.898  0.000
  1008N    -0.40790 -0.86209   1.424  3.984  0.000
  1009H     0.25617  0.46828   0.744  0.000  0.000
  1010H     0.05849  0.13762   0.942  0.000  0.000
  1011H     0.06192  0.13516   0.938  0.000  0.000
  1012H     0.05689  0.12060   0.943  0.000  0.000
  1013H     0.26607  0.45470   0.734  0.000  0.000
  1014H     0.25384  0.45188   0.746  0.000  0.000
  1015N    -0.32407 -0.68436   1.429  3.895  0.000
  1016C     0.07586  0.08323   1.042  2.882  0.000
  1017C     0.46688  0.57319   0.988  2.545  0.000
  1018O    -0.63399 -0.68145   1.737  4.897  0.000
  1019C     0.22762  0.18513   1.017  2.756  0.000
  1020O    -0.60152 -0.81527   1.710  4.892  0.000
  1021C    -0.10547 -0.25170   1.017  3.089  0.000
  1022H     0.25278  0.44913   0.747  0.000  0.000
  1023H     0.06783  0.15821   0.932  0.000  0.000
  1024H     0.01886  0.09012   0.981  0.000  0.000
  1025H     0.36716  0.55769   0.633  0.000  0.000
  1026H     0.03745  0.09446   0.963  0.000  0.000
  1027H     0.03022  0.08610   0.970  0.000  0.000
  1028H     0.03686  0.09552   0.963  0.000  0.000
  1029N    -0.31979 -0.67669   1.431  3.889  0.000
  1030C     0.07970  0.08004   1.048  2.873  0.000
  1031C     0.56907  0.63504   0.960  2.471  0.000
  1032O    -0.71337 -0.75351   1.739  4.974  0.000
  1033C    -0.04594 -0.14269   1.037  3.009  0.000
  1034C    -0.00742 -0.02212   1.086  2.922  0.000
  1035C    -0.03535 -0.08906   1.064  2.972  0.000
  1036C    -0.03620 -0.09023   1.061  2.975  0.000
  1037C    -0.07505 -0.12797   1.057  3.019  0.000
  1038C    -0.09366 -0.14669   1.063  3.031  0.000
  1039C     0.24754  0.25644   1.019  2.733  0.000
  1040O    -0.54585 -0.75636   1.706  4.840  0.000
  1041O    -0.73932 -0.78013   1.749  4.990  0.000
  1042H     0.25173  0.45628   0.748  0.000  0.000
  1043H     0.03311  0.11307   0.967  0.000  0.000
  1044H     0.03821  0.10159   0.962  0.000  0.000
  1045H     0.03897  0.09823   0.961  0.000  0.000
  1046H     0.03312  0.09753   0.967  0.000  0.000
  1047H     0.03464  0.09222   0.965  0.000  0.000
  1048H     0.04146  0.10369   0.959  0.000  0.000
  1049H     0.04645  0.10555   0.954  0.000  0.000
  1050H     0.37812  0.54674   0.622  0.000  0.000
  1051N    -0.21308 -0.81434   1.462  3.751  0.000
  1052C     0.07808  0.06464   1.046  2.876  0.000
  1053C     0.39593  0.36762   1.054  2.550  0.000
  1054O    -0.49892 -0.57827   1.734  4.765  0.000
  1055C    -0.08446 -0.17593   1.048  3.037  0.000
  1056C     0.48056  0.57369   0.985  2.535  0.000
  1057O    -0.63052 -0.68969   1.731  4.899  0.000
  1058N    -0.40407 -0.87020   1.431  3.973  0.000
  1059H     0.28939  0.47068   0.711  0.000  0.000
  1060H     0.29065  0.48063   0.709  0.000  0.000
  1061H     0.30134  0.50144   0.699  0.000  0.000
  1062H     0.09824  0.17254   0.902  0.000  0.000
  1063H     0.08646  0.15688   0.914  0.000  0.000
  1064H     0.08692  0.14968   0.913  0.000  0.000
  1065H     0.27908  0.49400   0.721  0.000  0.000
  1066H     0.26862  0.47381   0.731  0.000  0.000
  1067N    -0.54581 -1.05975   1.439  4.107  0.000
  1068C     0.06210  0.01957   1.010  2.928  0.000
  1069C     0.46049  0.56083   0.998  2.542  0.000
  1070O    -0.63446 -0.68198   1.739  4.896  0.000
  1071H     0.22722  0.43257   0.773  0.000  0.000
  1072H     0.05474  0.13643   0.945  0.000  0.000
  1073H     0.01690  0.08935   0.983  0.000  0.000
  1074N    -0.33145 -0.68927   1.427  3.905  0.000
  1075C     0.09193  0.09690   1.038  2.871  0.000
  1076C     0.46613  0.57064   0.994  2.539  0.000
  1077O    -0.60219 -0.67498   1.729  4.874  0.000
  1078C     0.20724  0.12823   0.989  2.804  0.000
  1079O    -0.60122 -0.81901   1.701  4.900  0.000
  1080H     0.24514  0.44528   0.755  0.000  0.000
  1081H     0.04798  0.13218   0.952  0.000  0.000
  1082H     0.03220  0.10573   0.968  0.000  0.000
  1083H     0.03426  0.10766   0.966  0.000  0.000
  1084H     0.35634  0.53305   0.644  0.000  0.000
  1085N    -0.32528 -0.68409   1.429  3.896  0.000
  1086C     0.11124  0.11584   1.037  2.852  0.000
  1087C     0.46897  0.57340   0.991  2.540  0.000
  1088O    -0.60939 -0.67184   1.726  4.883  0.000
  1089C    -0.08592 -0.17532   1.047  3.039  0.000
  1090C     0.48639  0.57898   0.994  2.519  0.000
  1091O    -0.60397 -0.67989   1.725  4.879  0.000
  1092N    -0.39349 -0.84787   1.425  3.969  0.000
  1093H     0.25750  0.47339   0.743  0.000  0.000
  1094H     0.06180  0.14746   0.938  0.000  0.000
  1095H     0.05425  0.12791   0.946  0.000  0.000
  1096H     0.05587  0.12068   0.944  0.000  0.000
  1097H     0.25533  0.45476   0.745  0.000  0.000
  1098H     0.25094  0.44778   0.749  0.000  0.000
  1099N    -0.31581 -0.67616   1.429  3.887  0.000
  1100C     0.08597  0.09307   1.041  2.874  0.000
  1101C     0.47243  0.57755   0.988  2.540  0.000
  1102O    -0.60621 -0.67521   1.727  4.880  0.000
  1103C     0.22762  0.18459   1.022  2.751  0.000
  1104O    -0.59842 -0.81211   1.711  4.888  0.000
  1105C    -0.09284 -0.24006   1.017  3.076  0.000
  1106H     0.25781  0.46484   0.742  0.000  0.000
  1107H     0.05607  0.14414   0.944  0.000  0.000
  1108H     0.02895  0.10211   0.971  0.000  0.000
  1109H     0.36276  0.54894   0.637  0.000  0.000
  1110H     0.04117  0.10044   0.959  0.000  0.000
  1111H     0.03636  0.09480   0.964  0.000  0.000
  1112H     0.02528  0.08492   0.975  0.000  0.000
  1113N    -0.33020 -0.68840   1.435  3.895  0.000
  1114C     0.09508  0.09431   1.044  2.861  0.000
  1115C     0.57806  0.64066   0.961  2.461  0.000
[...]
  1429   6 C    3.902 --  1430 O    1.572  1441 N    1.305  1428 C    0.942
  1430   8 O    1.866 --  1429 C    1.572  1441 N    0.171
  1431   6 C    3.991 --  1432 C    0.970  1437 H    0.968  1428 C    0.965
                          1438 H    0.961
  1432   6 C    3.890 --  1433 O    1.541  1434 N    1.333  1431 C    0.970
  1433   8 O    1.922 --  1432 C    1.541  1434 N    0.163
  1434   7 N    3.332 --  1432 C    1.333  1440 H    0.910  1439 H    0.879
                          1433 O    0.163
  1435   1 H    0.949 --  1427 N    0.900
  1436   1 H    1.025 --  1428 C    0.958
  1437   1 H    1.009 --  1431 C    0.968
  1438   1 H    1.011 --  1431 C    0.961
  1439   1 H    0.953 --  1434 N    0.879
  1440   1 H    0.950 --  1434 N    0.910
  1441   7 N    3.371 --  1429 C    1.305  1442 C    0.944  1448 H    0.877
                          1430 O    0.171
  1442   6 C    3.948 --  1449 H    0.964  1445 C    0.959  1443 C    0.950
                          1441 N    0.944
  1443   6 C    3.903 --  1444 O    1.533  1455 N    1.328  1442 C    0.950
  1444   8 O    1.912 --  1443 C    1.533  1455 N    0.169
  1445   6 C    3.917 --  1447 C    1.001  1450 H    0.969  1442 C    0.959
                          1446 O    0.942
  1446   8 O    1.895 --  1445 C    0.942  1451 H    0.857
  1447   6 C    3.993 --  1445 C    1.001  1454 H    0.986  1453 H    0.983
                          1452 H    0.983
  1448   1 H    0.959 --  1441 N    0.877
  1449   1 H    1.013 --  1442 C    0.964
  1450   1 H    1.008 --  1445 C    0.969
  1451   1 H    0.872 --  1446 O    0.857
  1452   1 H    1.001 --  1447 C    0.983
  1453   1 H    1.001 --  1447 C    0.983
  1454   1 H    1.006 --  1447 C    0.986
  1455   7 N    3.382 --  1443 C    1.328  1456 C    0.923  1468 H    0.903
                          1444 O    0.169
  1456   6 C    3.916 --  1459 C    0.962  1469 H    0.956  1455 N    0.923
                          1457 C    0.912
  1457   6 C    3.889 --  1467 O    1.473  1458 O    1.468  1456 C    0.912
  1458   8 O    1.730 --  1457 C    1.468  1467 O    0.181
  1459   6 C    3.995 --  1460 C    1.011  1470 H    0.974  1471 H    0.971
                          1456 C    0.962
  1460   6 C    3.989 --  1462 C    1.410  1461 C    1.404  1459 C    1.011
  1461   6 C    3.994 --  1463 C    1.460  1460 C    1.404  1472 H    0.972
                          1464 C    0.105
  1462   6 C    3.995 --  1464 C    1.451  1460 C    1.410  1473 H    0.971
                          1463 C    0.105
  1463   6 C    3.990 --  1461 C    1.460  1465 C    1.364  1474 H    0.966
                          1462 C    0.105
  1464   6 C    3.990 --  1462 C    1.451  1465 C    1.374  1475 H    0.960
                          1461 C    0.105
  1465   6 C    3.909 --  1464 C    1.374  1463 C    1.364  1466 O    1.031
  1466   8 O    2.036 --  1465 C    1.031  1476 H    0.796
  1467   8 O    1.745 --  1457 C    1.473  1458 O    0.181
  1468   1 H    0.953 --  1455 N    0.903
  1469   1 H    1.028 --  1456 C    0.956
  1470   1 H    1.002 --  1459 C    0.974
  1471   1 H    1.011 --  1459 C    0.971
  1472   1 H    1.005 --  1461 C    0.972
  1473   1 H    1.004 --  1462 C    0.971
  1474   1 H    1.005 --  1463 C    0.966
  1475   1 H    1.014 --  1464 C    0.960
  1476   1 H    0.885 --  1466 O    0.796
  1477   7 N    2.943 --  1478 C    0.985  1484 H    0.944  1682 H    0.933
  1478   6 C    3.973 --  1477 N    0.985  1485 H    0.973  1481 C    0.961
                          1479 C    0.958
  1479   6 C    3.874 --  1480 O    1.542  1493 N    1.290  1478 C    0.958
  1480   8 O    1.894 --  1479 C    1.542  1493 N    0.155
  1481   6 C    3.992 --  1483 C    1.010  1482 C    1.001  1486 H    0.970
                          1478 C    0.961
  1482   6 C    3.997 --  1481 C    1.001  1488 H    0.984  1489 H    0.983
                          1487 H    0.983
  1483   6 C    3.996 --  1481 C    1.010  1491 H    0.981  1492 H    0.980
                          1490 H    0.978
  1484   1 H    0.965 --  1477 N    0.944
  1485   1 H    1.006 --  1478 C    0.973
  1486   1 H    1.015 --  1481 C    0.970
  1487   1 H    1.010 --  1482 C    0.983
  1488   1 H    1.009 --  1482 C    0.984
  1489   1 H    1.007 --  1482 C    0.983
  1490   1 H    1.008 --  1483 C    0.978
  1491   1 H    1.005 --  1483 C    0.981
  1492   1 H    1.003 --  1483 C    0.980
  1493   7 N    3.351 --  1479 C    1.290  1494 C    0.948  1497 H    0.902
                          1480 O    0.155
  1494   6 C    3.945 --  1495 C    0.968  1499 H    0.961  1493 N    0.948
                          1498 H    0.942
  1495   6 C    3.890 --  1496 O    1.528  1500 N    1.307  1494 C    0.968
  1496   8 O    1.925 --  1495 C    1.528  1500 N    0.155
  1497   1 H    0.942 --  1493 N    0.902
  1498   1 H    1.021 --  1494 C    0.942
  1499   1 H    1.022 --  1494 C    0.961
  1500   7 N    3.369 --  1495 C    1.307  1501 C    0.932  1506 H    0.893
                          1496 O    0.155
  1501   6 C    3.945 --  1504 C    0.987  1507 H    0.966  1502 C    0.942
                          1500 N    0.932
  1502   6 C    3.902 --  1503 O    1.553  1511 N    1.326  1501 C    0.942
  1503   8 O    1.857 --  1502 C    1.553  1511 N    0.173
  1504   6 C    3.917 --  1501 C    0.987  1508 H    0.972  1509 H    0.970
                          1505 O    0.955
  1505   8 O    1.888 --  1504 C    0.955  1510 H    0.849
  1506   1 H    0.957 --  1500 N    0.893
  1507   1 H    1.017 --  1501 C    0.966
  1508   1 H    1.015 --  1504 C    0.972
  1509   1 H    1.020 --  1504 C    0.970
  1510   1 H    0.864 --  1505 O    0.849
  1511   7 N    3.377 --  1502 C    1.326  1512 C    0.947  1519 H    0.862
                          1503 O    0.173
  1512   6 C    3.948 --  1515 C    0.964  1520 H    0.959  1511 N    0.947
                          1513 C    0.944
  1513   6 C    3.896 --  1514 O    1.546  1525 N    1.318  1512 C    0.944
  1514   8 O    1.901 --  1513 C    1.546  1525 N    0.167
  1515   6 C    3.989 --  1516 C    0.969  1521 H    0.966  1522 H    0.965
                          1512 C    0.964
  1516   6 C    3.891 --  1517 O    1.532  1518 N    1.344  1515 C    0.969
  1517   8 O    1.912 --  1516 C    1.532  1518 N    0.165
  1518   7 N    3.338 --  1516 C    1.344  1524 H    0.896  1523 H    0.883
                          1517 O    0.165
  1519   1 H    0.956 --  1511 N    0.862
  1520   1 H    1.025 --  1512 C    0.959
  1521   1 H    1.019 --  1515 C    0.966
  1522   1 H    1.009 --  1515 C    0.965
  1523   1 H    0.956 --  1518 N    0.883
  1524   1 H    0.962 --  1518 N    0.896
  1525   7 N    3.378 --  1513 C    1.318  1526 C    0.939  1532 H    0.880
                          1514 O    0.167
  1526   6 C    3.941 --  1533 H    0.962  1529 C    0.960  1527 C    0.948
                          1525 N    0.939
  1527   6 C    3.909 --  1528 O    1.549  1539 N    1.330  1526 C    0.948
  1528   8 O    1.845 --  1527 C    1.549  1539 N    0.176
  1529   6 C    3.917 --  1531 C    1.001  1534 H    0.969  1526 C    0.960
                          1530 O    0.943
  1530   8 O    1.873 --  1529 C    0.943  1535 H    0.858
  1531   6 C    3.994 --  1529 C    1.001  1538 H    0.986  1536 H    0.983
                          1537 H    0.981
  1532   1 H    0.960 --  1525 N    0.880
  1533   1 H    1.027 --  1526 C    0.962
  1534   1 H    1.012 --  1529 C    0.969
  1535   1 H    0.872 --  1530 O    0.858
  1536   1 H    1.003 --  1531 C    0.983
  1537   1 H    1.014 --  1531 C    0.981
  1538   1 H    1.007 --  1531 C    0.986
  1539   7 N    3.378 --  1527 C    1.330  1540 C    0.931  1552 H    0.872
                          1528 O    0.176
  1540   6 C    3.926 --  1553 H    0.965  1543 C    0.961  1539 N    0.931
                          1541 C    0.915
  1541   6 C    3.887 --  1542 O    1.471  1551 O    1.466  1540 C    0.915
  1542   8 O    1.729 --  1541 C    1.471  1551 O    0.180
  1543   6 C    3.995 --  1544 C    1.011  1555 H    0.971  1554 H    0.964
                          1540 C    0.961
  1544   6 C    3.989 --  1546 C    1.410  1545 C    1.403  1543 C    1.011
  1545   6 C    3.994 --  1547 C    1.460  1544 C    1.403  1556 H    0.969
                          1548 C    0.104
  1546   6 C    3.994 --  1548 C    1.449  1544 C    1.410  1557 H    0.972
                          1547 C    0.105
  1547   6 C    3.990 --  1545 C    1.460  1549 C    1.363  1558 H    0.963
                          1546 C    0.105
  1548   6 C    3.989 --  1546 C    1.449  1549 C    1.375  1559 H    0.961
                          1545 C    0.104
  1549   6 C    3.910 --  1548 C    1.375  1547 C    1.363  1550 O    1.033
  1550   8 O    2.035 --  1549 C    1.033  1560 H    0.793
  1551   8 O    1.735 --  1541 C    1.466  1542 O    0.180
  1552   1 H    0.963 --  1539 N    0.872
  1553   1 H    1.024 --  1540 C    0.965
  1554   1 H    1.016 --  1543 C    0.964
  1555   1 H    1.013 --  1543 C    0.971
  1556   1 H    1.019 --  1545 C    0.969
  1557   1 H    1.003 --  1546 C    0.972
  1558   1 H    1.011 --  1547 C    0.963
  1559   1 H    1.006 --  1548 C    0.961
  1560   1 H    0.881 --  1550 O    0.793
  1561   7 N    2.934 --  1562 C    0.982  1567 H    0.938  1683 H    0.936
  1562   6 C    3.977 --  1561 N    0.982  1565 C    0.981  1568 H    0.972
                          1563 C    0.953
  1563   6 C    3.880 --  1564 O    1.543  1572 N    1.300  1562 C    0.953
  1564   8 O    1.904 --  1563 C    1.543  1572 N    0.160
  1565   6 C    3.918 --  1562 C    0.981  1569 H    0.971  1570 H    0.965
                          1566 O    0.953
  1566   8 O    1.869 --  1565 C    0.953  1571 H    0.857
  1567   1 H    0.975 --  1561 N    0.938
  1568   1 H    1.003 --  1562 C    0.972
  1569   1 H    1.027 --  1565 C    0.971
  1570   1 H    1.023 --  1565 C    0.965
  1571   1 H    0.871 --  1566 O    0.857
  1572   7 N    3.361 --  1563 C    1.300  1573 C    0.945  1580 H    0.904
                          1564 O    0.160
  1573   6 C    3.944 --  1576 C    0.965  1581 H    0.958  1572 N    0.945
                          1574 C    0.941
  1574   6 C    3.903 --  1575 O    1.570  1586 N    1.309  1573 C    0.941
  1575   8 O    1.866 --  1574 C    1.570  1586 N    0.172
  1576   6 C    3.992 --  1577 C    0.972  1582 H    0.968  1573 C    0.965
                          1583 H    0.961
  1577   6 C    3.886 --  1578 O    1.548  1579 N    1.318  1576 C    0.972
  1578   8 O    1.923 --  1577 C    1.548  1579 N    0.160
  1579   7 N    3.313 --  1577 C    1.318  1585 H    0.906  1584 H    0.892
                          1578 O    0.160
  1580   1 H    0.947 --  1572 N    0.904
  1581   1 H    1.026 --  1573 C    0.958
  1582   1 H    1.009 --  1576 C    0.968
  1583   1 H    1.011 --  1576 C    0.961
  1584   1 H    0.928 --  1579 N    0.892
  1585   1 H    0.938 --  1579 N    0.906
  1586   7 N    3.374 --  1574 C    1.309  1587 C    0.942  1593 H    0.876
                          1575 O    0.172
  1587   6 C    3.945 --  1594 H    0.964  1590 C    0.955  1588 C    0.952
                          1586 N    0.942
  1588   6 C    3.897 --  1589 O    1.541  1600 N    1.315  1587 C    0.952
  1589   8 O    1.917 --  1588 C    1.541  1600 N    0.165
  1590   6 C    3.923 --  1592 C    0.996  1595 H    0.960  1587 C    0.955
                          1591 O    0.952
  1591   8 O    1.902 --  1590 C    0.952  1596 H    0.824
  1592   6 C    3.994 --  1590 C    0.996  1598 H    0.982  1597 H    0.981
                          1599 H    0.981
  1593   1 H    0.959 --  1586 N    0.876
  1594   1 H    1.013 --  1587 C    0.964
  1595   1 H    1.017 --  1590 C    0.960
  1596   1 H    0.890 --  1591 O    0.824
  1597   1 H    1.013 --  1592 C    0.981
  1598   1 H    1.005 --  1592 C    0.982
  1599   1 H    1.013 --  1592 C    0.981
  1600   7 N    3.373 --  1588 C    1.315  1601 C    0.930  1613 H    0.902
                          1589 O    0.165
  1601   6 C    3.929 --  1604 C    0.960  1614 H    0.954  1600 N    0.930
                          1602 C    0.925
  1602   6 C    3.875 --  1612 O    1.468  1603 O    1.434  1601 C    0.925
  1603   8 O    1.832 --  1602 C    1.434  1612 O    0.169
  1604   6 C    3.995 --  1605 C    1.011  1615 H    0.974  1616 H    0.971
                          1601 C    0.960
  1605   6 C    3.989 --  1607 C    1.411  1606 C    1.404  1604 C    1.011
  1606   6 C    3.994 --  1608 C    1.462  1605 C    1.404  1617 H    0.972
                          1609 C    0.104
  1607   6 C    3.995 --  1609 C    1.451  1605 C    1.411  1618 H    0.973
                          1608 C    0.105
  1608   6 C    3.990 --  1606 C    1.462  1610 C    1.363  1619 H    0.965
                          1607 C    0.105
  1609   6 C    3.990 --  1607 C    1.451  1610 C    1.376  1620 H    0.961
                          1606 C    0.104
  1610   6 C    3.912 --  1609 C    1.376  1608 C    1.363  1611 O    1.042
  1611   8 O    2.007 --  1610 C    1.042  1621 H    0.800
  1612   8 O    1.813 --  1602 C    1.468  1603 O    0.169
  1613   1 H    0.952 --  1600 N    0.902
  1614   1 H    1.026 --  1601 C    0.954
  1615   1 H    1.002 --  1604 C    0.974
  1616   1 H    1.010 --  1604 C    0.971
  1617   1 H    1.004 --  1606 C    0.972
  1618   1 H    1.002 --  1607 C    0.973
  1619   1 H    1.005 --  1608 C    0.965
  1620   1 H    1.008 --  1609 C    0.961
  1621   1 H    0.887 --  1611 O    0.800
  1622   7 N    2.941 --  1623 C    0.994  1684 H    0.941  1626 H    0.941
  1623   6 C    3.978 --  1622 N    0.994  1624 C    0.974  1628 H    0.966
                          1627 H    0.952
  1624   6 C    3.881 --  1625 O    1.524  1629 N    1.298  1623 C    0.974
  1625   8 O    1.922 --  1624 C    1.524  1629 N    0.151
  1626   1 H    0.954 --  1622 N    0.941
  1627   1 H    1.007 --  1623 C    0.952
  1628   1 H    1.033 --  1623 C    0.966
  1629   7 N    3.358 --  1624 C    1.298  1630 C    0.933  1635 H    0.894
                          1625 O    0.151
  1630   6 C    3.947 --  1633 C    0.987  1636 H    0.966  1631 C    0.943
                          1629 N    0.933
  1631   6 C    3.900 --  1632 O    1.562  1640 N    1.316  1630 C    0.943
  1632   8 O    1.850 --  1631 C    1.562  1640 N    0.172
  1633   6 C    3.917 --  1630 C    0.987  1637 H    0.973  1638 H    0.970
                          1634 O    0.955
  1634   8 O    1.888 --  1633 C    0.955  1639 H    0.849
  1635   1 H    0.932 --  1629 N    0.894
  1636   1 H    1.017 --  1630 C    0.966
  1637   1 H    1.012 --  1633 C    0.973
  1638   1 H    1.021 --  1633 C    0.970
  1639   1 H    0.864 --  1634 O    0.849
  1640   7 N    3.370 --  1631 C    1.316  1641 C    0.951  1648 H    0.860
                          1632 O    0.172
  1641   6 C    3.955 --  1642 C    0.980  1649 H    0.955  1644 C    0.951
                          1640 N    0.951
  1642   6 C    3.812 --  1643 O    1.800  1641 C    0.980  1685 H    0.959
  1643   8 O    1.993 --  1642 C    1.800
  1644   6 C    3.986 --  1650 H    0.972  1651 H    0.965  1645 C    0.963
                          1641 C    0.951
  1645   6 C    3.900 --  1646 O    1.577  1647 N    1.322  1644 C    0.963
  1646   8 O    1.851 --  1645 C    1.577  1647 N    0.173
  1647   7 N    3.321 --  1645 C    1.322  1653 H    0.896  1652 H    0.884
                          1646 O    0.173
  1648   1 H    0.954 --  1640 N    0.860
  1649   1 H    1.009 --  1641 C    0.955
  1650   1 H    1.009 --  1644 C    0.972
  1651   1 H    1.001 --  1644 C    0.965
  1652   1 H    0.956 --  1647 N    0.884
  1653   1 H    0.961 --  1647 N    0.896
  1654   7 N    2.933 --  1655 C    0.980  1660 H    0.942  1686 H    0.937
  1655   6 C    3.975 --  1658 C    0.982  1654 N    0.980  1661 H    0.972
                          1656 C    0.952
  1656   6 C    3.887 --  1657 O    1.558  1665 N    1.301  1655 C    0.952
  1657   8 O    1.840 --  1656 C    1.558  1665 N    0.165
  1658   6 C    3.916 --  1655 C    0.982  1662 H    0.974  1663 H    0.965
                          1659 O    0.951
  1659   8 O    1.897 --  1658 C    0.951  1664 H    0.859
  1660   1 H    0.958 --  1654 N    0.942
  1661   1 H    1.009 --  1655 C    0.972
  1662   1 H    1.018 --  1658 C    0.974
  1663   1 H    1.028 --  1658 C    0.965
  1664   1 H    0.877 --  1659 O    0.859
  1665   7 N    3.356 --  1656 C    1.301  1666 C    0.953  1673 H    0.865
                          1657 O    0.165
  1666   6 C    3.958 --  1667 C    0.977  1674 H    0.956  1665 N    0.953
                          1669 C    0.952
  1667   6 C    3.815 --  1668 O    1.807  1666 C    0.977  1687 H    0.959
  1668   8 O    2.000 --  1667 C    1.807
  1669   6 C    3.987 --  1670 C    0.966  1675 H    0.965  1676 H    0.965
                          1666 C    0.952
  1670   6 C    3.894 --  1671 O    1.578  1672 N    1.311  1669 C    0.966
  1671   8 O    1.846 --  1670 C    1.578  1672 N    0.168
  1672   7 N    3.309 --  1670 C    1.311  1677 H    0.898  1678 H    0.895
                          1671 O    0.168
  1673   1 H    0.954 --  1665 N    0.865
  1674   1 H    1.011 --  1666 C    0.956
  1675   1 H    1.019 --  1669 C    0.965
  1676   1 H    1.003 --  1669 C    0.965
  1677   1 H    0.935 --  1672 N    0.898
  1678   1 H    0.958 --  1672 N    0.895
  1679   1 H    1.010 --  1347 C    0.959
  1680   1 H    1.006 --  1379 C    0.960
  1681   1 H    0.950 --  1393 N    0.935
  1682   1 H    0.948 --  1477 N    0.933
  1683   1 H    0.949 --  1561 N    0.936
  1684   1 H    0.948 --  1622 N    0.941
  1685   1 H    1.004 --  1642 C    0.959
  1686   1 H    0.951 --  1654 N    0.937
  1687   1 H    1.005 --  1667 C    0.959
  1688   1 H    1.000 --   212 C    0.957
  1689   1 H    0.952 --   226 N    0.933
  1690   1 H    1.013 --   228 C    0.965
  1691   1 H    0.953 --   242 N    0.933
  1692   1 H    1.011 --   244 C    0.962
  1693   1 H    0.950 --   253 N    0.940
  1694   1 H    1.011 --   255 C    0.963
  1695   1 H    0.949 --   267 N    0.944
  1696   1 H    1.010 --   269 C    0.963
  1697   1 H    0.961 --   274 N    0.945
  1698   1 H    0.962 --   296 N    0.946
  1699   1 H    0.969 --   318 N    0.951
  1700   1 H    0.961 --   340 N    0.945
  1701   1 H    1.007 --   428 C    0.961
  1702   1 H    1.012 --   460 C    0.962
  1703   1 H    1.007 --   615 C    0.960
  1704   1 H    1.010 --   742 C    0.961
  1705   1 H    1.007 --   797 C    0.960
  1706   1 H    0.950 --   806 N    0.934
  1707   1 H    0.947 --   890 N    0.941
  1708   1 H    1.004 --   910 C    0.960
  1709   1 H    0.950 --   922 N    0.943
  1710   1 H    0.956 --   990 N    0.937
  1711   1 H    1.001 --  1053 C    0.955
  1712   1 H    0.958 --  1067 N    0.949
  1713   1 H    1.005 --  1169 C    0.960
  1714   1 H    1.010 --  1192 C    0.959
  1715   1 H    1.002 --  1208 C    0.955
  1716   1 H    0.952 --  1222 N    0.944
  1717   1 H    1.008 --  1324 C    0.962
 ---------------------------------------------------------------------------


 dipole moment from electron density (au)
     X       Y       Z   
  27.4379  11.4672  69.3703  total (Debye):  191.840


           -------------------------------------------------
          | TOTAL ENERGY            -3057.394173543379 Eh   |
          | GRADIENT NORM               1.831313435724 Eh/α |
          | HOMO-LUMO GAP               0.649803034885 eV   |
           -------------------------------------------------

------------------------------------------------------------------------
 * finished run on 2022/06/09 at 01:04:11.950     
------------------------------------------------------------------------
 total:
 * wall-time:     0 d,  0 h,  7 min, 50.348 sec
 *  cpu-time:     0 d,  0 h,  7 min, 49.782 sec
 * ratio c/w:     0.999 speedup
 SCF:
 * wall-time:     0 d,  0 h,  7 min, 11.412 sec
 *  cpu-time:     0 d,  0 h,  7 min, 10.943 sec
 * ratio c/w:     0.999 speedup

