      -----------------------------------------------------------      
     |                   =====================                   |     
     |                           x T B                           |     
     |                   =====================                   |     
     |                         S. Grimme                         |     
     |          Mulliken Center for Theoretical Chemistry        |     
     |                    University of Bonn                     |     
      -----------------------------------------------------------      

   * xtb version 6.4.0 (d4b70c2) compiled by 'ehlert@majestix' on 2021-02-01

   xtb is free software: you can redistribute it and/or modify it under
   the terms of the GNU Lesser General Public License as published by
   the Free Software Foundation, either version 3 of the License, or
   (at your option) any later version.
   
   xtb is distributed in the hope that it will be useful,
   but WITHOUT ANY WARRANTY; without even the implied warranty of
   MERCHANTABILITY or FITNESS FOR A PARTICULAR PURPOSE.  See the
   GNU Lesser General Public License for more details.
   
   Cite this work as:
   * C. Bannwarth, E. Caldeweyher, S. Ehlert, A. Hansen, P. Pracht,
     J. Seibert, S. Spicher, S. Grimme, WIREs Comput. Mol. Sci., 2020,
     e01493. DOI: 10.1002/wcms.1493
   
   for GFN2-xTB:
   * C. Bannwarth, S. Ehlert and S. Grimme., J. Chem. Theory Comput., 2019,
     15, 1652-1671. DOI: 10.1021/acs.jctc.8b01176
   for GFN1-xTB:
   * S. Grimme, C. Bannwarth, P. Shushkov, J. Chem. Theory Comput., 2017,
     13, 1989-2009. DOI: 10.1021/acs.jctc.7b00118
   for GFN0-xTB:
   * P. Pracht, E. Caldeweyher, S. Ehlert, S. Grimme, ChemRxiv, 2019, preprint.
     DOI: 10.26434/chemrxiv.8326202.v1
   for GFN-FF:
   * S. Spicher and S. Grimme, Angew. Chem. Int. Ed., 2020, 59, 15665-15673.
     DOI: 10.1002/anie.202004239
   
   for DFT-D4:
   * E. Caldeweyher, C. Bannwarth and S. Grimme, J. Chem. Phys., 2017,
     147, 034112. DOI: 10.1063/1.4993215
   * E. Caldeweyher, S. Ehlert, A. Hansen, H. Neugebauer, S. Spicher,
     C. Bannwarth and S. Grimme, J. Chem. Phys., 2019, 150, 154122.
     DOI: 10.1063/1.5090222
   * E. Caldeweyher, J.-M. Mewes, S. Ehlert and S. Grimme, Phys. Chem. Chem. Phys.
     2020, 22, 8499-8512. DOI: 10.1039/D0CP00502A
   
   for sTDA-xTB:
   * S. Grimme and C. Bannwarth, J. Chem. Phys., 2016, 145, 054103.
     DOI: 10.1063/1.4959605
   
   in the mass-spec context:
   * V. Asgeirsson, C. Bauer and S. Grimme, Chem. Sci., 2017, 8, 4879.
     DOI: 10.1039/c7sc00601b
   * J. Koopman and S. Grimme, ACS Omega 2019, 4, 12, 15120-15133.
     DOI: 10.1021/acsomega.9b02011
   
   for metadynamics refer to:
   * S. Grimme, J. Chem. Theory Comput., 2019, 155, 2847-2862
     DOI: 10.1021/acs.jctc.9b00143
   
   with help from (in alphabetical order)
   P. Atkinson, C. Bannwarth, F. Bohle, G. Brandenburg, E. Caldeweyher
   M. Checinski, S. Dohm, S. Ehlert, S. Ehrlich, I. Gerasimov, J. Koopman
   C. Lavinge, S. Lehtola, F. März, M. Müller, F. Musil, H. Neugebauer
   J. Pisarek, P. Pracht, J. Seibert, P. Shushkov, S. Spicher, M. Stahn
   T. Strunk, J. Stückrath, T. Rose, and J. Unsleber
   
 * started run on 2022/06/09 at 00:56:20.791     

           -------------------------------------------------
          |                Calculation Setup                |
           -------------------------------------------------

          program call               : /home/amax/XTB/xtb-6.4.0/bin/xtb xtb_tmp.xyz --chrg 0 --grad --gfn 1 --gbsa h2o --parallel 1
          hostname                   : amax
          coordinate file            : xtb_tmp.xyz
          omp threads                :                     1
          number of atoms            :                  1567
          number of electrons        :                  4524
          charge                     :                     0
          spin                       :                   0.0
          first test random number   :      0.47318253257336

   ID    Z sym.   atoms
    1    7 N      1, 8, 17, 24, 35, 42, 49, 63, 85, 92, 101, 117, 124, 135,
                  142, 149, 163, 194, 210, 217, 228, 242, 264, 286, 308, 315,
                  324, 331, 340, 347, 356, 372, 436, 443, 452, 459, 470, 477,
                  484, 498, 520, 527, 536, 552, 559, 566, 575, 582, 593, 600,
                  607, 621, 643, 650, 659, 675, 682, 691, 707, 723, 730, 741,
                  748, 755, 769, 791, 798, 809, 816, 823, 830, 841, 848, 855,
                  869, 891, 902, 909, 916, 930, 952, 959, 968, 984, 991,
                  1002, 1009, 1016, 1030, 1052, 1059, 1068, 1084, 1091, 1100,
                  1116, 1123, 1134, 1141, 1148, 1162, 1184, 1191, 1200, 1216,
                  1223, 1230, 1239, 1255, 1271, 1278, 1289, 1296, 1303, 1317,
                  1339, 1355, 1362, 1373, 1380, 1387, 1401, 1423, 1430, 1441,
                  1448, 1455, 1469, 1476, 1487, 1494, 1501, 1512, 1519
    2    6 C      2, 3, 5, 6, 18, 19, 25, 26, 28, 36, 37, 39, 40, 50, 51, 53,
                  55, 64, 65, 67-73, 86, 87, 89, 90, 102, 103, 105-107, 118,
                  119, 125, 126, 128, 136, 137, 139, 140, 150, 151, 153, 155,
                  164, 165, 167-173, 195, 196, 198-200, 211, 212, 218, 219,
                  221, 229, 230, 232, 234, 243, 244, 246-252, 265, 266,
                  268-274, 287, 288, 290-296, 309, 310, 312, 313, 325, 326,
                  328, 329, 341, 342, 344, 345, 357, 358, 360-362, 373, 374,
                  376-382, 437, 438, 440, 441, 453, 454, 460, 461, 463, 471,
                  472, 474, 475, 485, 486, 488, 490, 499, 500, 502-508, 521,
                  522, 524, 525, 537, 538, 540-542, 553, 554, 560, 561, 563,
                  564, 576, 577, 583, 584, 586, 594, 595, 597, 598, 608, 609,
                  611, 613, 622, 623, 625-631, 644, 645, 647, 648, 660, 661,
                  663-665, 676, 677, 679, 680, 692, 693, 695-697, 708, 709,
                  711-713, 724, 725, 731, 732, 734, 742, 743, 745, 746, 756,
                  757, 759, 761, 770, 771, 773-779, 792, 793, 799, 800, 802,
                  810, 811, 813, 814, 824, 825, 831, 832, 834, 842, 843, 845,
                  846, 856, 857, 859, 861, 870, 871, 873-879, 892, 893, 895,
                  903, 904, 906, 907, 917, 918, 920, 922, 931, 932, 934-940,
                  953, 954, 956, 957, 969, 970, 972-974, 985, 986, 992, 993,
                  995, 1003, 1004, 1006, 1007, 1017, 1018, 1020, 1022, 1031,
                  1032, 1034-1040, 1053, 1054, 1056, 1057, 1069, 1070,
                  1072-1074, 1085, 1086, 1088, 1089, 1101, 1102, 1104-1106,
                  1117, 1118, 1124, 1125, 1127, 1135, 1136, 1138, 1139, 1149,
                  1150, 1152, 1154, 1163, 1164, 1166-1172, 1185, 1186, 1188,
                  1189, 1201, 1202, 1204-1206, 1217, 1218, 1224, 1225, 1227,
                  1228, 1240, 1241, 1243-1245, 1256, 1257, 1259-1261, 1272,
                  1273, 1279, 1280, 1282, 1290, 1291, 1293, 1294, 1304, 1305,
                  1307, 1309, 1318, 1319, 1321-1327, 1340, 1341, 1343-1345,
                  1356, 1357, 1363, 1364, 1366, 1374, 1375, 1377, 1378, 1388,
                  1389, 1391, 1393, 1402, 1403, 1405-1411, 1424, 1425, 1431,
                  1432, 1434, 1442, 1443, 1445, 1446, 1456, 1457, 1459, 1461,
                  1470, 1471, 1477, 1478, 1480, 1488, 1489, 1491, 1492, 1502,
                  1503, 1505, 1513, 1514, 1516, 1517
    3    8 O      4, 7, 20, 27, 29, 38, 41, 52, 54, 66, 74, 75, 88, 91, 104,
                  120, 127, 129, 138, 141, 152, 154, 166, 174, 175, 185, 188,
                  191, 197, 213, 220, 222, 231, 233, 245, 253, 254, 267, 275,
                  276, 289, 297, 298, 311, 314, 327, 330, 343, 346, 359, 375,
                  383, 384, 394, 397, 400, 403, 406, 409, 412, 415, 418, 421,
                  424, 427, 430, 433, 439, 442, 455, 462, 464, 473, 476, 487,
                  489, 501, 509, 510, 523, 526, 539, 555, 562, 565, 578, 585,
                  587, 596, 599, 610, 612, 624, 632, 633, 646, 649, 662, 678,
                  681, 694, 710, 726, 733, 735, 744, 747, 758, 760, 772, 780,
                  781, 794, 801, 803, 812, 815, 826, 833, 835, 844, 847, 858,
                  860, 872, 880, 881, 894, 896, 905, 908, 919, 921, 933, 941,
                  942, 955, 958, 971, 987, 994, 996, 1005, 1008, 1019, 1021,
                  1033, 1041, 1042, 1055, 1058, 1071, 1087, 1090, 1103, 1119,
                  1126, 1128, 1137, 1140, 1151, 1153, 1165, 1173, 1174, 1187,
                  1190, 1203, 1219, 1226, 1229, 1242, 1258, 1274, 1281, 1283,
                  1292, 1295, 1306, 1308, 1320, 1328, 1329, 1342, 1358, 1365,
                  1367, 1376, 1379, 1390, 1392, 1404, 1412, 1413, 1426, 1433,
                  1435, 1444, 1447, 1458, 1460, 1472, 1479, 1481, 1490, 1493,
                  1504, 1506, 1515, 1518
    4    1 H      9-16, 21-23, 30-34, 43-48, 56-62, 76-84, 93-100, 108-116,
                  121-123, 130-134, 143-148, 156-162, 176-184, 186, 187, 189,
                  190, 192, 193, 201-209, 214-216, 223-227, 235-241, 255-263,
                  277-285, 299-307, 316-323, 332-339, 348-355, 363-371,
                  385-393, 395, 396, 398, 399, 401, 402, 404, 405, 407, 408,
                  410, 411, 413, 414, 416, 417, 419, 420, 422, 423, 425, 426,
                  428, 429, 431, 432, 434, 435, 444-451, 456-458, 465-469,
                  478-483, 491-497, 511-519, 528-535, 543-551, 556-558,
                  567-574, 579-581, 588-592, 601-606, 614-620, 634-642,
                  651-658, 666-674, 683-690, 698-706, 714-722, 727-729,
                  736-740, 749-754, 762-768, 782-790, 795-797, 804-808,
                  817-822, 827-829, 836-840, 849-854, 862-868, 882-890,
                  897-901, 910-915, 923-929, 943-951, 960-967, 975-983,
                  988-990, 997-1001, 1010-1015, 1023-1029, 1043-1051,
                  1060-1067, 1075-1083, 1092-1099, 1107-1115, 1120-1122,
                  1129-1133, 1142-1147, 1155-1161, 1175-1183, 1192-1199,
                  1207-1215, 1220-1222, 1231-1238, 1246-1254, 1262-1270,
                  1275-1277, 1284-1288, 1297-1302, 1310-1316, 1330-1338,
                  1346-1354, 1359-1361, 1368-1372, 1381-1386, 1394-1400,
                  1414-1422, 1427-1429, 1436-1440, 1449-1454, 1462-1468,
                  1473-1475, 1482-1486, 1495-1500, 1507-1511, 1520-1567

molecular fragmentation (1/2 indicates fragments):
111111111111111122222222222222222222222222222222222222222222222222222222
222222222222222222222222222222222222222222222222222222222222222222222222
222222222222222222222222222222222222222222222222222222222222222222222222
222222222222222222222222222222222222222222222222222222222222222222222222
222222222222222222222222222222222222222222222222222222222222222222222222
222222222222222222222222222222222222222222222222222222222222222222222222
222222222222222222222222222222222222222222222222222222222222222222222222
222222222222222222222222222222222222222222222222222222222222222222222222
222222222222222222222222222222222222222222222222222222222222222222222222
222222222222222222222222222222222222222222222222222222222222222222222222
222222222222222222222222222222222222222222222222222222222222222222222222
222222222222222222222222222222222222222222222222222222222222222222222222
222222222222222222222222222222222222222222222222222222222222222222222222
222222222222222222222222222222222222222222222222222222222222222222222222
222222222222222222222222222222222222222222222222222222222222222222222222
222222222222222222222222222222222222222222222222222222222222222222222222
222222222222222222222222222222222222222222222222222222222222222222222222
222222222222222222222222222222222222222222222222222222222222222222222222
222222222222222222222222222222222222222222222222222222222222222222222222
222222222222222222222222222222222222222222222222222222222222222222222222
222222222222222222222222222222222222222222222222222222222222222222222222
2222222222222122222222222222222222222222222222222222222
# atoms in fragment 1/2:    17  1550
 fragment masses (1/2) :      117.13    11380.64
CMA distance (Bohr)    :  24.014
constraining FC (au)   :  0.0500

           -------------------------------------------------
          |                 G F N 1 - x T B                 |
           -------------------------------------------------

        Reference                      10.1021/acs.jctc.7b00118
      * Hamiltonian:
        H0-scaling (s, p, d)           1.850000    2.250000    2.000000
        zeta-weighting                 0.000000
      * Dispersion:
        s8                             2.400000
        a1                             0.630000
        a2                             5.000000
        s9                             0.000000
      * Repulsion:
        kExp                           1.500000
        rExp                           1.000000
      * Coulomb:
        alpha                          2.000000
        third order                    atomic
        anisotropic                    false
      * Halogen bond correction:
        rad-scale                      1.300000
        damping                        0.440000

      * Solvation model:               GBSA
        Solvent                        h2o
        Parameter file                 internal GFN1-xTB/GBSA
        Dielectric constant                7.8500E+01
        Reference state                gsolv [1 M gas/solution]
        Free energy shift                  2.0755E-03 Eh       1.3024E+00 kcal/mol
        Temperature                        2.9815E+02 K
        Density                            9.9800E-01 kg/L
        Solvent mass                       1.8000E+01 g/mol
        Interaction kernel             Still
        Born radius scaling (c1)           1.5808E+00
        Born radii integrator          GBOBC
        Born offset                        1.3596E-02 a0       2.5692E-02 AA
        H-bond correction              true
        Ion screening                  false
        Surface tension                    1.0000E-05 Eh       1.5569E+01 dyn/cm
        Grid points                               230 per atom

          ...................................................
          :                      SETUP                      :
          :.................................................:
          :  # basis functions                4736          :
          :  # atomic orbitals                4736          :
          :  # shells                         3134          :
          :  # electrons                      4524          :
          :  # halogen bonds                     0          :
          :  max. iterations                   250          :
          :  Hamiltonian                  GFN1-xTB          :
          :  restarted?                      false          :
          :  GBSA solvation                   true          :
          :  PC potential                    false          :
          :  electronic temp.          300.0000000     K    :
          :  accuracy                    1.0000000          :
          :  -> integral cutoff          0.2500000E+02      :
          :  -> integral neglect         0.1000000E-07      :
          :  -> SCF convergence          0.1000000E-05 Eh   :
          :  -> wf. convergence          0.2000000E-04 e    :
          :  Broyden damping             0.4000000          :
          ...................................................

 iter      E             dE          RMSdq      gap      omega  full diag
   1  -2815.4048481 -0.281540E+04  0.815E+00    2.37       0.0  T
   2  -2826.5204926 -0.111156E+02  0.482E+00    1.57       1.0  T
   3  -2826.4758286  0.446640E-01  0.138E+00    0.66       1.0  T
   4  -2826.8188519 -0.343023E+00  0.151E-01    0.14       1.0  T
   5  -2826.8432859 -0.244339E-01  0.380E-02    0.54       1.0  T
   6  -2826.8448672 -0.158134E-02  0.110E-02    0.49       1.0  T
   7  -2826.8449655 -0.982544E-04  0.424E-03    0.42       1.0  T
   8  -2826.8449746 -0.912824E-05  0.163E-03    0.38       1.5  T
   9  -2826.8449751 -0.492962E-06  0.451E-04    0.37       5.6  T
  10  -2826.8449751 -0.413092E-07  0.112E-04    0.37      22.7  T
  11  -2826.8449751 -0.265754E-08  0.373E-05    0.37      67.6  T

   *** convergence criteria satisfied after 11 iterations ***

         #    Occupation            Energy/Eh            Energy/eV
      -------------------------------------------------------------
         1        2.0000           -0.8788138             -23.9137
       ...           ...                  ...                  ...
      2256        2.0000           -0.3897124             -10.6046
      2257        2.0000           -0.3872497             -10.5376
      2258        2.0000           -0.3853281             -10.4853
      2259        2.0000           -0.3843999             -10.4601
      2260        2.0000           -0.3799909             -10.3401
      2261        2.0000           -0.3789472             -10.3117
      2262        1.9982           -0.3667161              -9.9789 (HOMO)
      2263        0.0017           -0.3533005              -9.6138 (LUMO)
      2264        0.0001           -0.3503553              -9.5337
      2265                         -0.3377953              -9.1919
      2266                         -0.3335978              -9.0777
      2267                         -0.3328557              -9.0575
       ...                                ...                  ...
      4736                          0.9683440              26.3500
      -------------------------------------------------------------
                  HL-Gap            0.0134155 Eh            0.3651 eV
             Fermi-level           -0.3600293 Eh           -9.7969 eV

 SCC (total)                   0 d,  0 h,  5 min, 36.020 sec
 SCC setup                      ...        0 min,  0.481 sec (  0.143%)
 Dispersion                     ...        0 min,  0.312 sec (  0.093%)
 classical contributions        ...        0 min,  0.060 sec (  0.018%)
 integral evaluation            ...        0 min, 38.536 sec ( 11.468%)
 iterations                     ...        4 min, 33.543 sec ( 81.407%)
 molecular gradient             ...        0 min, 20.639 sec (  6.142%)
 printout                       ...        0 min,  2.448 sec (  0.729%)

         :::::::::::::::::::::::::::::::::::::::::::::::::::::
         ::                     SUMMARY                     ::
         :::::::::::::::::::::::::::::::::::::::::::::::::::::
         :: total energy           -2798.573368776197 Eh    ::
         :: total w/o Gsasa/hb     -2798.491022873113 Eh    ::
         :: gradient norm              1.797337961298 Eh/a0 ::
         :: HOMO-LUMO gap              0.365055131077 eV    ::
         ::.................................................::
         :: SCC energy             -2826.844975125133 Eh    ::
         :: -> electrostatic          15.427970951405 Eh    ::
         :: -> Gsolv                  -2.143816066292 Eh    ::
         ::    -> Gborn               -2.061470163208 Eh    ::
         ::    -> Gsasa                0.175217420727 Eh    ::
         ::    -> Ghb                 -0.259638794451 Eh    ::
         ::    -> Gshift               0.002075470640 Eh    ::
         :: repulsion energy          30.160890784798 Eh    ::
         :: dispersion energy         -1.889284435861 Eh    ::
         :: halogen bond corr.         0.000000000000 Eh    ::
         :: add. restraining           0.000000000000 Eh    ::
         :: total charge               0.000000000001 e     ::
         :::::::::::::::::::::::::::::::::::::::::::::::::::::

           -------------------------------------------------
          |                Property Printout                |
           -------------------------------------------------

    * Orbital Energies and Occupations

         #    Occupation            Energy/Eh            Energy/eV
      -------------------------------------------------------------
         1        2.0000           -0.8788138             -23.9137
       ...           ...                  ...                  ...
      2250        2.0000           -0.3987634             -10.8509
      2251        2.0000           -0.3986288             -10.8472
      2252        2.0000           -0.3979460             -10.8287
      2253        2.0000           -0.3958475             -10.7716
      2254        2.0000           -0.3931504             -10.6982
      2255        2.0000           -0.3907797             -10.6337
      2256        2.0000           -0.3897124             -10.6046
      2257        2.0000           -0.3872497             -10.5376
      2258        2.0000           -0.3853281             -10.4853
      2259        2.0000           -0.3843999             -10.4601
      2260        2.0000           -0.3799909             -10.3401
      2261        2.0000           -0.3789472             -10.3117
      2262        1.9982           -0.3667161              -9.9789 (HOMO)
      2263        0.0017           -0.3533005              -9.6138 (LUMO)
      2264        0.0001           -0.3503553              -9.5337
      2265                         -0.3377953              -9.1919
      2266                         -0.3335978              -9.0777
      2267                         -0.3328557              -9.0575
      2268                         -0.3317896              -9.0285
      2269                         -0.3292951              -8.9606
      2270                         -0.3277915              -8.9197
      2271                         -0.3258082              -8.8657
      2272                         -0.3244713              -8.8293
      2273                         -0.3239998              -8.8165
       ...                                ...                  ...
      4736                          0.9683440              26.3500
      -------------------------------------------------------------
                  HL-Gap            0.0134155 Eh            0.3651 eV
             Fermi-level           -0.3600293 Eh           -9.7969 eV

  Mulliken/CM5 charges         n(s)   n(p)   n(d)
     1N    -0.21042 -0.81270   1.461  3.750  0.000
     2C     0.07585  0.06326   1.047  2.877  0.000
     3C     0.39190  0.36359   1.056  2.552  0.000
     4O    -0.49804 -0.56814   1.737  4.761  0.000
     5C    -0.08810 -0.17954   1.051  3.037  0.000
     6C     0.47727  0.57009   0.988  2.535  0.000
     7O    -0.63808 -0.69924   1.735  4.903  0.000
     8N    -0.40341 -0.86554   1.432  3.971  0.000
     9H     0.28783  0.46915   0.712  0.000  0.000
    10H     0.28926  0.47891   0.711  0.000  0.000
    11H     0.30204  0.50431   0.698  0.000  0.000
    12H     0.09492  0.16871   0.905  0.000  0.000
    13H     0.08790  0.15669   0.912  0.000  0.000
    14H     0.09310  0.15542   0.907  0.000  0.000
    15H     0.28559  0.50539   0.714  0.000  0.000
    16H     0.26207  0.46275   0.738  0.000  0.000
    17N    -0.52834 -1.04316   1.435  4.093  0.000
    18C     0.05838  0.01547   1.014  2.927  0.000
    19C     0.46323  0.56081   1.001  2.535  0.000
    20O    -0.60294 -0.68542   1.728  4.875  0.000
    21H     0.21296  0.40016   0.787  0.000  0.000
    22H     0.07063  0.15457   0.929  0.000  0.000
    23H     0.02721  0.10077   0.973  0.000  0.000
    24N    -0.32766 -0.68362   1.430  3.898  0.000
    25C     0.08815  0.09192   1.042  2.870  0.000
    26C     0.46782  0.57272   0.993  2.539  0.000
    27O    -0.59924 -0.66588   1.730  4.869  0.000
    28C     0.19860  0.11853   0.996  2.806  0.000
    29O    -0.59816 -0.81737   1.704  4.894  0.000
    30H     0.25576  0.45653   0.744  0.000  0.000
    31H     0.05591  0.13960   0.944  0.000  0.000
    32H     0.04118  0.11314   0.959  0.000  0.000
    33H     0.04240  0.11330   0.958  0.000  0.000
    34H     0.36660  0.53868   0.633  0.000  0.000
    35N    -0.32241 -0.68206   1.428  3.895  0.000
    36C     0.11155  0.11644   1.035  2.854  0.000
    37C     0.47110  0.57547   0.991  2.538  0.000
    38O    -0.61102 -0.67290   1.729  4.882  0.000
    39C    -0.08848 -0.17808   1.047  3.041  0.000
    40C     0.48916  0.58376   0.989  2.522  0.000
    41O    -0.60618 -0.68045   1.722  4.884  0.000
    42N    -0.38937 -0.84877   1.423  3.966  0.000
    43H     0.25871  0.47353   0.741  0.000  0.000
    44H     0.06347  0.14841   0.937  0.000  0.000
    45H     0.05662  0.12994   0.943  0.000  0.000
    46H     0.05588  0.12078   0.944  0.000  0.000
    47H     0.25861  0.46010   0.741  0.000  0.000
    48H     0.24888  0.44916   0.751  0.000  0.000
    49N    -0.32115 -0.68301   1.431  3.890  0.000
    50C     0.08045  0.08766   1.041  2.878  0.000
    51C     0.47403  0.57944   0.989  2.537  0.000
    52O    -0.60602 -0.67608   1.728  4.878  0.000
    53C     0.22861  0.18572   1.017  2.754  0.000
    54O    -0.59364 -0.82313   1.711  4.883  0.000
    55C    -0.10369 -0.25121   1.019  3.084  0.000
    56H     0.26028  0.46904   0.740  0.000  0.000
    57H     0.06247  0.15291   0.938  0.000  0.000
    58H     0.01640  0.08772   0.984  0.000  0.000
    59H     0.36847  0.56073   0.632  0.000  0.000
    60H     0.03271  0.09042   0.967  0.000  0.000
    61H     0.03083  0.08931   0.969  0.000  0.000
    62H     0.04598  0.11153   0.954  0.000  0.000
    63N    -0.31422 -0.67333   1.430  3.884  0.000
    64C     0.08771  0.08720   1.047  2.865  0.000
    65C     0.57842  0.64145   0.965  2.457  0.000
    66O    -0.66769 -0.75345   1.728  4.939  0.000
    67C    -0.04438 -0.14137   1.037  3.007  0.000
    68C    -0.00763 -0.02272   1.084  2.924  0.000
    69C    -0.03606 -0.08984   1.063  2.973  0.000
    70C    -0.03261 -0.08773   1.061  2.972  0.000
    71C    -0.07739 -0.13036   1.056  3.021  0.000
    72C    -0.09004 -0.14389   1.063  3.027  0.000
    73C     0.25220  0.26098   1.021  2.727  0.000
    74O    -0.55765 -0.76930   1.708  4.849  0.000
    75O    -0.70166 -0.76170   1.744  4.958  0.000
    76H     0.25386  0.45886   0.746  0.000  0.000
    77H     0.04306  0.12416   0.957  0.000  0.000
    78H     0.03809  0.10149   0.962  0.000  0.000
    79H     0.03907  0.09852   0.961  0.000  0.000
    80H     0.02929  0.09370   0.971  0.000  0.000
    81H     0.02990  0.08811   0.970  0.000  0.000
    82H     0.03770  0.09994   0.962  0.000  0.000
    83H     0.03985  0.10201   0.960  0.000  0.000
    84H     0.37897  0.57078   0.621  0.000  0.000
    85N    -0.20118 -0.80421   1.459  3.742  0.000
    86C     0.08615  0.08051   1.042  2.872  0.000
    87C     0.47662  0.57945   0.984  2.540  0.000
    88O    -0.60139 -0.66926   1.725  4.877  0.000
    89C    -0.08869 -0.17901   1.045  3.044  0.000
    90C     0.48298  0.57563   0.987  2.530  0.000
    91O    -0.63290 -0.70464   1.729  4.904  0.000
    92N    -0.40587 -0.87281   1.432  3.974  0.000
    93H     0.28046  0.48094   0.720  0.000  0.000
    94H     0.27184  0.46528   0.728  0.000  0.000
    95H     0.27684  0.47742   0.723  0.000  0.000
    96H     0.07757  0.16348   0.922  0.000  0.000
    97H     0.07506  0.14576   0.925  0.000  0.000
    98H     0.07002  0.13578   0.930  0.000  0.000
    99H     0.27812  0.49315   0.722  0.000  0.000
   100H     0.26819  0.47340   0.732  0.000  0.000
   101N    -0.31639 -0.68000   1.428  3.888  0.000
   102C     0.08915  0.09301   1.043  2.868  0.000
   103C     0.46686  0.57140   0.995  2.538  0.000
   104O    -0.61570 -0.68255   1.728  4.888  0.000
   105C     0.00078 -0.06757   1.058  2.942  0.000
   106C    -0.08492 -0.23461   1.015  3.070  0.000
   107C    -0.08193 -0.23093   1.010  3.072  0.000
   108H     0.25874  0.46451   0.741  0.000  0.000
   109H     0.05375  0.13802   0.946  0.000  0.000
   110H     0.02720  0.09169   0.973  0.000  0.000
   111H     0.04401  0.09747   0.956  0.000  0.000
   112H     0.02690  0.08394   0.973  0.000  0.000
   113H     0.03286  0.08710   0.967  0.000  0.000
   114H     0.03946  0.09260   0.961  0.000  0.000
   115H     0.03423  0.08866   0.966  0.000  0.000
   116H     0.03702  0.09443   0.963  0.000  0.000
   117N    -0.32859 -0.69500   1.432  3.897  0.000
   118C     0.06531  0.02833   1.016  2.919  0.000
   119C     0.47463  0.57576   0.992  2.533  0.000
   120O    -0.59738 -0.67649   1.727  4.870  0.000
   121H     0.27376  0.48534   0.726  0.000  0.000
   122H     0.08165  0.16372   0.918  0.000  0.000
   123H     0.05576  0.13161   0.944  0.000  0.000
   124N    -0.31408 -0.66875   1.425  3.889  0.000
   125C     0.08986  0.09481   1.039  2.871  0.000
   126C     0.46635  0.57086   0.993  2.541  0.000
   127O    -0.60048 -0.67328   1.728  4.872  0.000
   128C     0.20704  0.12804   0.989  2.804  0.000
   129O    -0.60181 -0.82059   1.701  4.901  0.000
   130H     0.24693  0.44803   0.753  0.000  0.000
   131H     0.05080  0.13534   0.949  0.000  0.000
   132H     0.03459  0.10815   0.965  0.000  0.000
   133H     0.04018  0.11359   0.960  0.000  0.000
   134H     0.35609  0.53322   0.644  0.000  0.000
   135N    -0.32300 -0.68185   1.430  3.893  0.000
   136C     0.11114  0.11573   1.037  2.852  0.000
   137C     0.46935  0.57378   0.990  2.540  0.000
   138O    -0.60811 -0.67056   1.726  4.882  0.000
   139C    -0.08648 -0.17590   1.047  3.039  0.000
   140C     0.48646  0.57903   0.994  2.519  0.000
   141O    -0.60519 -0.68111   1.725  4.880  0.000
   142N    -0.39034 -0.84599   1.424  3.966  0.000
   143H     0.26030  0.47623   0.740  0.000  0.000
   144H     0.06153  0.14720   0.938  0.000  0.000
   145H     0.05598  0.12968   0.944  0.000  0.000
   146H     0.05693  0.12173   0.943  0.000  0.000
   147H     0.25642  0.45643   0.744  0.000  0.000
   148H     0.24796  0.44631   0.752  0.000  0.000
   149N    -0.31594 -0.67629   1.429  3.887  0.000
   150C     0.08603  0.09313   1.041  2.873  0.000
   151C     0.47198  0.57710   0.988  2.540  0.000
   152O    -0.60703 -0.67602   1.727  4.880  0.000
   153C     0.22724  0.18421   1.022  2.751  0.000
   154O    -0.59932 -0.81302   1.711  4.889  0.000
   155C    -0.09226 -0.23948   1.016  3.076  0.000
   156H     0.25709  0.46412   0.743  0.000  0.000
   157H     0.05659  0.14466   0.943  0.000  0.000
   158H     0.03107  0.10423   0.969  0.000  0.000
   159H     0.36293  0.54911   0.637  0.000  0.000
   160H     0.04135  0.10062   0.959  0.000  0.000
   161H     0.03671  0.09515   0.963  0.000  0.000
   162H     0.02327  0.08291   0.977  0.000  0.000
   163N    -0.32937 -0.68758   1.435  3.894  0.000
   164C     0.09494  0.09417   1.044  2.861  0.000
   165C     0.57806  0.64066   0.962  2.460  0.000
   166O    -0.67695 -0.75547   1.736  4.941  0.000
   167C    -0.03741 -0.13462   1.032  3.005  0.000
   168C    -0.00606 -0.02130   1.081  2.925  0.000
   169C    -0.03438 -0.08829   1.060  2.974  0.000
   170C    -0.03055 -0.08577   1.059  2.971  0.000
   171C    -0.08099 -0.13429   1.055  3.026  0.000
   172C    -0.08729 -0.14123   1.059  3.028  0.000
   173C     0.24924  0.25842   1.021  2.730  0.000
   174O    -0.55746 -0.76763   1.705  4.852  0.000
   175O    -0.68060 -0.74791   1.738  4.943  0.000
   176H     0.25897  0.47167   0.741  0.000  0.000
   177H     0.04045  0.12130   0.960  0.000  0.000
   178H     0.03216  0.09605   0.968  0.000  0.000
   179H     0.03949  0.10217   0.961  0.000  0.000
   180H     0.02826  0.09324   0.972  0.000  0.000
   181H     0.02852  0.08699   0.971  0.000  0.000
   182H     0.03501  0.09825   0.965  0.000  0.000
   183H     0.03481  0.09923   0.965  0.000  0.000
   184H     0.37459  0.56618   0.625  0.000  0.000
   185O    -0.73270 -1.21788   1.660  5.073  0.000
   186H     0.37482  0.62721   0.625  0.000  0.000
   187H     0.37460  0.62091   0.625  0.000  0.000
   188O    -0.71520 -1.19255   1.655  5.060  0.000
   189H     0.36981  0.60303   0.630  0.000  0.000
   190H     0.36950  0.60862   0.630  0.000  0.000
   191O    -0.72185 -1.18762   1.649  5.073  0.000
   192H     0.35397  0.58933   0.646  0.000  0.000
   193H     0.36053  0.60413   0.639  0.000  0.000
   194N    -0.52598 -1.04073   1.441  4.085  0.000
   195C     0.09045  0.08196   1.037  2.872  0.000
   196C     0.38221  0.35482   1.060  2.558  0.000
   197O    -0.52770 -0.58640   1.747  4.780  0.000
   198C    -0.00621 -0.07636   1.058  2.948  0.000
   199C    -0.09706 -0.24760   1.015  3.082  0.000
   200C    -0.09175 -0.24279   1.017  3.075  0.000
   201H     0.21481  0.40398   0.785  0.000  0.000
   202H     0.02946  0.09944   0.971  0.000  0.000
   203H     0.03243  0.09621   0.968  0.000  0.000
   204H     0.03874  0.09194   0.961  0.000  0.000
   205H     0.03398  0.08874   0.966  0.000  0.000
   206H     0.03243  0.08573   0.968  0.000  0.000
   207H     0.03385  0.08784   0.966  0.000  0.000
   208H     0.03253  0.08640   0.967  0.000  0.000
   209H     0.04265  0.10130   0.957  0.000  0.000
   210N    -0.52974 -1.04295   1.440  4.090  0.000
   211C     0.06257  0.01357   1.011  2.926  0.000
   212C     0.37785  0.34721   1.055  2.567  0.000
   213O    -0.55405 -0.61051   1.747  4.807  0.000
   214H     0.21566  0.41266   0.784  0.000  0.000
   215H     0.07823  0.15960   0.922  0.000  0.000
   216H     0.02541  0.09730   0.975  0.000  0.000
   217N    -0.52242 -1.02713   1.442  4.081  0.000
   218C     0.07918  0.06975   1.042  2.879  0.000
   219C     0.38566  0.35974   1.062  2.553  0.000
   220O    -0.53261 -0.58903   1.747  4.786  0.000
   221C     0.19032  0.11077   0.994  2.816  0.000
   222O    -0.60197 -0.81371   1.703  4.899  0.000
   223H     0.22748  0.41343   0.773  0.000  0.000
   224H     0.05012  0.12173   0.950  0.000  0.000
   225H     0.03354  0.10176   0.966  0.000  0.000
   226H     0.03102  0.09691   0.969  0.000  0.000
   227H     0.36538  0.53064   0.635  0.000  0.000
   228N    -0.53264 -1.04148   1.444  4.089  0.000
   229C     0.08351  0.07756   1.039  2.877  0.000
   230C     0.39465  0.36890   1.056  2.549  0.000
   231O    -0.51055 -0.59279   1.738  4.773  0.000
   232C     0.21962  0.17614   1.023  2.758  0.000
   233O    -0.60812 -0.81475   1.709  4.899  0.000
   234C    -0.10782 -0.25570   1.021  3.087  0.000
   235H     0.22425  0.42639   0.776  0.000  0.000
   236H     0.03511  0.10588   0.965  0.000  0.000
   237H     0.02924  0.09799   0.971  0.000  0.000
   238H     0.36574  0.53255   0.634  0.000  0.000
   239H     0.03716  0.09404   0.963  0.000  0.000
   240H     0.04071  0.09893   0.959  0.000  0.000
   241H     0.04688  0.11219   0.953  0.000  0.000
   242N    -0.53191 -1.03842   1.438  4.094  0.000
   243C     0.08305  0.07697   1.045  2.872  0.000
   244C     0.57321  0.63624   0.969  2.458  0.000
   245O    -0.67851 -0.76415   1.729  4.949  0.000
   246C    -0.04821 -0.14597   1.038  3.011  0.000
   247C    -0.00624 -0.02176   1.086  2.920  0.000
   248C    -0.03755 -0.09205   1.062  2.975  0.000
   249C    -0.03344 -0.08759   1.060  2.973  0.000
   250C    -0.07905 -0.13031   1.054  3.026  0.000
   251C    -0.09141 -0.14402   1.063  3.029  0.000
   252C     0.24838  0.25916   1.018  2.734  0.000
   253O    -0.56709 -0.75960   1.707  4.860  0.000
   254O    -0.71575 -0.77392   1.745  4.970  0.000
   255H     0.20027  0.38743   0.800  0.000  0.000
   256H     0.02227  0.09599   0.978  0.000  0.000
   257H     0.03228  0.09500   0.968  0.000  0.000
   258H     0.03062  0.08991   0.969  0.000  0.000
   259H     0.03010  0.08984   0.970  0.000  0.000
   260H     0.03201  0.08980   0.968  0.000  0.000
   261H     0.03734  0.09695   0.963  0.000  0.000
   262H     0.04342  0.10391   0.957  0.000  0.000
   263H     0.38146  0.54828   0.619  0.000  0.000
   264N    -0.53108 -1.03779   1.438  4.093  0.000
   265C     0.08338  0.07666   1.047  2.870  0.000
   266C     0.57192  0.63461   0.970  2.458  0.000
   267O    -0.68228 -0.76801   1.730  4.952  0.000
   268C    -0.05720 -0.15463   1.038  3.019  0.000
   269C    -0.00890 -0.02431   1.085  2.924  0.000
   270C    -0.04299 -0.09712   1.063  2.980  0.000
   271C    -0.03385 -0.08826   1.060  2.974  0.000
   272C    -0.08414 -0.13522   1.054  3.030  0.000
   273C    -0.08870 -0.14184   1.062  3.026  0.000
   274C     0.25131  0.26209   1.019  2.730  0.000
   275O    -0.57473 -0.76767   1.708  4.866  0.000
   276O    -0.70964 -0.76971   1.745  4.965  0.000
   277H     0.20065  0.38738   0.799  0.000  0.000
   278H     0.02599  0.10079   0.974  0.000  0.000
   279H     0.02923  0.08932   0.971  0.000  0.000
   280H     0.03010  0.08922   0.970  0.000  0.000
   281H     0.03240  0.09134   0.968  0.000  0.000
   282H     0.02872  0.08684   0.971  0.000  0.000
   283H     0.03761  0.09680   0.962  0.000  0.000
   284H     0.03760  0.10105   0.962  0.000  0.000
   285H     0.37331  0.56262   0.627  0.000  0.000
   286N    -0.52897 -1.03603   1.437  4.092  0.000
   287C     0.08605  0.07929   1.046  2.868  0.000
   288C     0.57411  0.63681   0.969  2.457  0.000
   289O    -0.67909 -0.76485   1.729  4.950  0.000
   290C    -0.04759 -0.14554   1.038  3.010  0.000
   291C    -0.00273 -0.01864   1.086  2.916  0.000
   292C    -0.03561 -0.09022   1.063  2.973  0.000
   293C    -0.03094 -0.08609   1.061  2.970  0.000
   294C    -0.07565 -0.12721   1.054  3.022  0.000
   295C    -0.09503 -0.14845   1.063  3.032  0.000
   296C     0.24624  0.25585   1.019  2.735  0.000
   297O    -0.55772 -0.75569   1.706  4.851  0.000
   298O    -0.71114 -0.77121   1.745  4.966  0.000
   299H     0.19829  0.38545   0.802  0.000  0.000
   300H     0.02215  0.09696   0.978  0.000  0.000
   301H     0.03136  0.09410   0.969  0.000  0.000
   302H     0.02928  0.08869   0.971  0.000  0.000
   303H     0.03129  0.09103   0.969  0.000  0.000
   304H     0.03307  0.09125   0.967  0.000  0.000
   305H     0.03968  0.09933   0.960  0.000  0.000
   306H     0.04335  0.10294   0.957  0.000  0.000
   307H     0.37502  0.54252   0.625  0.000  0.000
   308N    -0.21487 -0.81248   1.463  3.752  0.000
   309C     0.08568  0.07253   1.044  2.870  0.000
   310C     0.39646  0.36877   1.052  2.552  0.000
   311O    -0.50942 -0.57141   1.740  4.770  0.000
   312C    -0.10109 -0.19240   1.050  3.051  0.000
   313C     0.48078  0.57347   0.988  2.531  0.000
   314O    -0.61869 -0.69026   1.727  4.891  0.000
   315N    -0.40372 -0.86543   1.431  3.973  0.000
   316H     0.30123  0.49677   0.699  0.000  0.000
   317H     0.29432  0.48251   0.706  0.000  0.000
   318H     0.28503  0.46481   0.715  0.000  0.000
   319H     0.09957  0.18131   0.900  0.000  0.000
   320H     0.08406  0.14874   0.916  0.000  0.000
   321H     0.09917  0.16066   0.901  0.000  0.000
   322H     0.28983  0.50417   0.710  0.000  0.000
   323H     0.26907  0.45594   0.731  0.000  0.000
   324N    -0.20908 -0.81039   1.461  3.748  0.000
   325C     0.07787  0.06443   1.046  2.876  0.000
   326C     0.39718  0.36886   1.055  2.548  0.000
   327O    -0.49352 -0.57289   1.734  4.760  0.000
   328C    -0.08468 -0.17615   1.047  3.037  0.000
   329C     0.48288  0.57607   0.987  2.530  0.000
   330O    -0.62028 -0.67924   1.731  4.890  0.000
   331N    -0.40035 -0.86051   1.426  3.974  0.000
   332H     0.28953  0.47087   0.710  0.000  0.000
   333H     0.29178  0.48202   0.708  0.000  0.000
   334H     0.29898  0.49909   0.701  0.000  0.000
   335H     0.10107  0.17537   0.899  0.000  0.000
   336H     0.09105  0.16146   0.909  0.000  0.000
   337H     0.09387  0.15660   0.906  0.000  0.000
   338H     0.26515  0.45532   0.735  0.000  0.000
   339H     0.28126  0.48551   0.719  0.000  0.000
   340N    -0.20838 -0.80942   1.461  3.747  0.000
   341C     0.07879  0.06540   1.046  2.875  0.000
   342C     0.39443  0.36622   1.056  2.549  0.000
   343O    -0.49786 -0.57689   1.734  4.764  0.000
   344C    -0.09610 -0.18724   1.049  3.047  0.000
   345C     0.48718  0.58125   0.984  2.529  0.000
   346O    -0.61130 -0.65734   1.732  4.879  0.000
   347N    -0.41114 -0.86260   1.425  3.986  0.000
   348H     0.29235  0.47363   0.708  0.000  0.000
   349H     0.29123  0.48146   0.709  0.000  0.000
   350H     0.29869  0.49862   0.701  0.000  0.000
   351H     0.10463  0.17889   0.895  0.000  0.000
   352H     0.08343  0.15159   0.917  0.000  0.000
   353H     0.09849  0.15948   0.902  0.000  0.000
   354H     0.28668  0.47415   0.713  0.000  0.000
   355H     0.27078  0.45673   0.729  0.000  0.000
   356N    -0.52778 -1.03853   1.444  4.084  0.000
   357C     0.08831  0.07871   1.039  2.872  0.000
   358C     0.39377  0.36590   1.062  2.544  0.000
   359O    -0.52233 -0.60562   1.738  4.784  0.000
   360C    -0.00550 -0.07527   1.060  2.945  0.000
   361C    -0.10213 -0.25160   1.017  3.085  0.000
   362C    -0.09116 -0.24104   1.013  3.079  0.000
   363H     0.21873  0.41785   0.781  0.000  0.000
   364H     0.02864  0.09841   0.971  0.000  0.000
   365H     0.02858  0.09285   0.971  0.000  0.000
   366H     0.04244  0.09499   0.958  0.000  0.000
   367H     0.03347  0.08850   0.967  0.000  0.000
   368H     0.03287  0.08585   0.967  0.000  0.000
   369H     0.03839  0.09146   0.962  0.000  0.000
   370H     0.03259  0.08619   0.967  0.000  0.000
   371H     0.04086  0.09687   0.959  0.000  0.000
   372N    -0.55311 -1.05897   1.442  4.111  0.000
   373C     0.08141  0.07512   1.043  2.876  0.000
   374C     0.56595  0.63088   0.961  2.473  0.000
   375O    -0.73747 -0.77653   1.749  4.988  0.000
   376C    -0.04048 -0.13847   1.032  3.009  0.000
   377C    -0.00332 -0.01918   1.086  2.918  0.000
   378C    -0.03289 -0.08771   1.062  2.971  0.000
   379C    -0.03924 -0.09363   1.060  2.979  0.000
   380C    -0.08147 -0.13485   1.056  3.026  0.000
   381C    -0.09642 -0.14976   1.060  3.037  0.000
   382C     0.24296  0.25221   1.019  2.738  0.000
   383O    -0.54929 -0.75820   1.704  4.846  0.000
   384O    -0.73537 -0.78425   1.745  4.990  0.000
   385H     0.21240  0.41774   0.788  0.000  0.000
   386H    -0.00133  0.07207   1.001  0.000  0.000
   387H     0.02521  0.08899   0.975  0.000  0.000
   388H     0.02732  0.08964   0.973  0.000  0.000
   389H     0.03326  0.09797   0.967  0.000  0.000
   390H     0.03343  0.09106   0.967  0.000  0.000
   391H     0.03706  0.10025   0.963  0.000  0.000
   392H     0.04317  0.10254   0.957  0.000  0.000
   393H     0.37779  0.54632   0.622  0.000  0.000
   394O    -0.73292 -1.21809   1.660  5.073  0.000
   395H     0.37464  0.62703   0.625  0.000  0.000
   396H     0.37501  0.62132   0.625  0.000  0.000
   397O    -0.75728 -1.22717   1.660  5.097  0.000
   398H     0.37734  0.62839   0.623  0.000  0.000
   399H     0.38025  0.60870   0.620  0.000  0.000
   400O    -0.73557 -1.22069   1.661  5.075  0.000
   401H     0.37612  0.62848   0.624  0.000  0.000
   402H     0.37754  0.62385   0.622  0.000  0.000
   403O    -0.73425 -1.21793   1.660  5.074  0.000
   404H     0.37672  0.62510   0.623  0.000  0.000
   405H     0.37267  0.61831   0.627  0.000  0.000
   406O    -0.75511 -1.22507   1.659  5.096  0.000
   407H     0.37594  0.62702   0.624  0.000  0.000
   408H     0.37728  0.60574   0.623  0.000  0.000
   409O    -0.75532 -1.22525   1.660  5.096  0.000
   410H     0.37684  0.62789   0.623  0.000  0.000
   411H     0.37792  0.60635   0.622  0.000  0.000
   412O    -0.72991 -1.19367   1.654  5.076  0.000
   413H     0.36112  0.59401   0.639  0.000  0.000
   414H     0.36401  0.60239   0.636  0.000  0.000
   415O    -0.71512 -1.19148   1.655  5.060  0.000
   416H     0.36738  0.60038   0.633  0.000  0.000
   417H     0.36994  0.60653   0.630  0.000  0.000
   418O    -0.74005 -1.19895   1.654  5.086  0.000
   419H     0.36485  0.59912   0.635  0.000  0.000
   420H     0.37040  0.59819   0.630  0.000  0.000
   421O    -0.75663 -1.21305   1.659  5.098  0.000
   422H     0.38848  0.61339   0.612  0.000  0.000
   423H     0.37729  0.60318   0.623  0.000  0.000
   424O    -0.73838 -1.19367   1.652  5.087  0.000
   425H     0.36878  0.59511   0.631  0.000  0.000
   426H     0.37139  0.59897   0.629  0.000  0.000
   427O    -0.72904 -1.18950   1.649  5.080  0.000
   428H     0.35598  0.59127   0.644  0.000  0.000
   429H     0.36196  0.60449   0.638  0.000  0.000
   430O    -0.73488 -1.19514   1.651  5.084  0.000
   431H     0.35835  0.59174   0.642  0.000  0.000
   432H     0.36244  0.60353   0.638  0.000  0.000
   433O    -0.73529 -1.19470   1.651  5.085  0.000
   434H     0.35748  0.59075   0.643  0.000  0.000
   435H     0.35995  0.60102   0.640  0.000  0.000
   436N    -0.19541 -0.79978   1.458  3.737  0.000
   437C     0.08757  0.07518   1.042  2.870  0.000
   438C     0.39917  0.37027   1.056  2.544  0.000
   439O    -0.49443 -0.58529   1.736  4.759  0.000
   440C    -0.09796 -0.18903   1.051  3.047  0.000
   441C     0.48313  0.57660   0.987  2.530  0.000
   442O    -0.61748 -0.66231   1.739  4.879  0.000
   443N    -0.40965 -0.86122   1.425  3.984  0.000
   444H     0.28597  0.48436   0.714  0.000  0.000
   445H     0.27671  0.47099   0.723  0.000  0.000
   446H     0.28354  0.48598   0.716  0.000  0.000
   447H     0.09100  0.16554   0.909  0.000  0.000
   448H     0.08165  0.14906   0.918  0.000  0.000
   449H     0.09123  0.15227   0.909  0.000  0.000
   450H     0.28472  0.47206   0.715  0.000  0.000
   451H     0.27160  0.45732   0.728  0.000  0.000
   452N    -0.53686 -1.05041   1.438  4.099  0.000
   453C     0.05815  0.01609   1.012  2.930  0.000
   454C     0.46147  0.56058   1.001  2.538  0.000
   455O    -0.63285 -0.68078   1.739  4.894  0.000
   456H     0.21243  0.39943   0.788  0.000  0.000
   457H     0.06648  0.15039   0.934  0.000  0.000
   458H     0.02440  0.09706   0.976  0.000  0.000
   459N    -0.33572 -0.69003   1.430  3.906  0.000
   460C     0.08433  0.08820   1.043  2.873  0.000
   461C     0.46898  0.57390   0.993  2.538  0.000
   462O    -0.59350 -0.66008   1.730  4.864  0.000
   463C     0.19773  0.11837   0.994  2.808  0.000
   464O    -0.61135 -0.82026   1.705  4.906  0.000
   465H     0.25482  0.45548   0.745  0.000  0.000
   466H     0.06168  0.14264   0.938  0.000  0.000
   467H     0.04403  0.11506   0.956  0.000  0.000
   468H     0.03534  0.10339   0.965  0.000  0.000
   469H     0.37958  0.54428   0.620  0.000  0.000
   470N    -0.31574 -0.67348   1.424  3.892  0.000
   471C     0.10692  0.11174   1.036  2.857  0.000
   472C     0.46706  0.57155   0.990  2.543  0.000
   473O    -0.60830 -0.66527   1.731  4.877  0.000
   474C    -0.09123 -0.18104   1.048  3.043  0.000
   475C     0.48860  0.58311   0.989  2.523  0.000
   476O    -0.59529 -0.66955   1.722  4.874  0.000
   477N    -0.39399 -0.85125   1.423  3.971  0.000
   478H     0.24854  0.44709   0.751  0.000  0.000
   479H     0.07014  0.15505   0.930  0.000  0.000
   480H     0.05142  0.11984   0.949  0.000  0.000
   481H     0.06514  0.12998   0.935  0.000  0.000
   482H     0.26608  0.46661   0.734  0.000  0.000
   483H     0.25160  0.44070   0.748  0.000  0.000
   484N    -0.32225 -0.68406   1.431  3.891  0.000
   485C     0.07961  0.08682   1.041  2.879  0.000
   486C     0.47444  0.57985   0.990  2.536  0.000
   487O    -0.60205 -0.67212   1.728  4.874  0.000
   488C     0.22718  0.18429   1.017  2.755  0.000
   489O    -0.59626 -0.82573   1.712  4.885  0.000
   490C    -0.10439 -0.25191   1.020  3.085  0.000
   491H     0.26134  0.47011   0.739  0.000  0.000
   492H     0.06145  0.15183   0.939  0.000  0.000
   493H     0.01814  0.08945   0.982  0.000  0.000
   494H     0.37109  0.56335   0.629  0.000  0.000
   495H     0.03461  0.09232   0.965  0.000  0.000
   496H     0.03165  0.09013   0.968  0.000  0.000
   497H     0.04711  0.11266   0.953  0.000  0.000
   498N    -0.31743 -0.67624   1.429  3.888  0.000
   499C     0.08496  0.08449   1.048  2.867  0.000
   500C     0.57644  0.63945   0.965  2.458  0.000
   501O    -0.67040 -0.75614   1.729  4.942  0.000
   502C    -0.05346 -0.14993   1.038  3.015  0.000
   503C    -0.01219 -0.02680   1.083  2.929  0.000
   504C    -0.04065 -0.09393   1.063  2.978  0.000
   505C    -0.03240 -0.08679   1.060  2.973  0.000
   506C    -0.08181 -0.13429   1.056  3.026  0.000
   507C    -0.08253 -0.13607   1.062  3.020  0.000
   508C     0.25212  0.26123   1.021  2.727  0.000
   509O    -0.56410 -0.76539   1.709  4.855  0.000
   510O    -0.69916 -0.75920   1.744  4.956  0.000
   511H     0.25207  0.45664   0.748  0.000  0.000
   512H     0.04751  0.12860   0.952  0.000  0.000
   513H     0.03854  0.09930   0.961  0.000  0.000
   514H     0.04178  0.10093   0.958  0.000  0.000
   515H     0.03206  0.09564   0.968  0.000  0.000
   516H     0.02884  0.08699   0.971  0.000  0.000
   517H     0.03842  0.09856   0.962  0.000  0.000
   518H     0.03890  0.10281   0.961  0.000  0.000
   519H     0.37386  0.56460   0.626  0.000  0.000
   520N    -0.20330 -0.80262   1.460  3.744  0.000
   521C     0.07941  0.07391   1.045  2.876  0.000
   522C     0.47288  0.57484   0.983  2.544  0.000
   523O    -0.58445 -0.64773   1.728  4.857  0.000
   524C    -0.10579 -0.19620   1.052  3.054  0.000
   525C     0.47923  0.57262   0.989  2.532  0.000
   526O    -0.62645 -0.67128   1.739  4.887  0.000
   527N    -0.40800 -0.85960   1.425  3.983  0.000
   528H     0.29468  0.48880   0.705  0.000  0.000
   529H     0.29395  0.48284   0.706  0.000  0.000
   530H     0.28354  0.46453   0.716  0.000  0.000
   531H     0.08433  0.16493   0.916  0.000  0.000
   532H     0.08496  0.14983   0.915  0.000  0.000
   533H     0.09010  0.15360   0.910  0.000  0.000
   534H     0.28317  0.47049   0.717  0.000  0.000
   535H     0.27239  0.45814   0.728  0.000  0.000
   536N    -0.31211 -0.68003   1.424  3.888  0.000
   537C     0.08676  0.09192   1.042  2.871  0.000
   538C     0.46416  0.56905   0.995  2.541  0.000
   539O    -0.61086 -0.65548   1.739  4.872  0.000
   540C    -0.00444 -0.07300   1.056  2.948  0.000
   541C    -0.09013 -0.24062   1.014  3.076  0.000
   542C    -0.08089 -0.23070   1.015  3.066  0.000
   543H     0.25905  0.45477   0.741  0.000  0.000
   544H     0.06515  0.14714   0.935  0.000  0.000
   545H     0.03287  0.09686   0.967  0.000  0.000
   546H     0.03917  0.09261   0.961  0.000  0.000
   547H     0.03231  0.08926   0.968  0.000  0.000
   548H     0.03653  0.09063   0.963  0.000  0.000
   549H     0.02739  0.08159   0.973  0.000  0.000
   550H     0.03961  0.09765   0.960  0.000  0.000
   551H     0.03713  0.09891   0.963  0.000  0.000
   552N    -0.32229 -0.68908   1.424  3.898  0.000
   553C     0.06983  0.02602   1.015  2.915  0.000
   554C     0.40338  0.37392   1.054  2.542  0.000
   555O    -0.50965 -0.58890   1.738  4.771  0.000
   556H     0.26796  0.45952   0.732  0.000  0.000
   557H     0.09218  0.16328   0.908  0.000  0.000
   558H     0.07279  0.14804   0.927  0.000  0.000
   559N    -0.22128 -0.82198   1.463  3.759  0.000
   560C     0.07320  0.06074   1.048  2.878  0.000
   561C     0.39224  0.36420   1.054  2.554  0.000
   562O    -0.50319 -0.56421   1.740  4.764  0.000
   563C    -0.08871 -0.18022   1.051  3.037  0.000
   564C     0.47788  0.57018   0.990  2.533  0.000
   565O    -0.64190 -0.71401   1.734  4.908  0.000
   566N    -0.39487 -0.85804   1.433  3.962  0.000
   567H     0.29416  0.47537   0.706  0.000  0.000
   568H     0.30158  0.48661   0.698  0.000  0.000
   569H     0.30157  0.49815   0.698  0.000  0.000
   570H     0.09579  0.17741   0.904  0.000  0.000
   571H     0.09001  0.15568   0.910  0.000  0.000
   572H     0.09988  0.16285   0.900  0.000  0.000
   573H     0.28858  0.50852   0.711  0.000  0.000
   574H     0.26616  0.46679   0.734  0.000  0.000
   575N    -0.52745 -1.04184   1.436  4.091  0.000
   576C     0.06071  0.01754   1.012  2.927  0.000
   577C     0.46293  0.56047   1.000  2.537  0.000
   578O    -0.59801 -0.68045   1.728  4.870  0.000
   579H     0.21835  0.40406   0.782  0.000  0.000
   580H     0.05293  0.12253   0.947  0.000  0.000
   581H     0.03878  0.10929   0.961  0.000  0.000
   582N    -0.32479 -0.68077   1.430  3.894  0.000
   583C     0.08823  0.09199   1.043  2.869  0.000
   584C     0.46810  0.57300   0.993  2.539  0.000
   585O    -0.59904 -0.66569   1.730  4.869  0.000
   586C     0.19878  0.11869   0.996  2.805  0.000
   587O    -0.59479 -0.81506   1.703  4.892  0.000
   588H     0.25838  0.45912   0.742  0.000  0.000
   589H     0.05972  0.14340   0.940  0.000  0.000
   590H     0.04174  0.11370   0.958  0.000  0.000
   591H     0.04463  0.11554   0.955  0.000  0.000
   592H     0.36218  0.53479   0.638  0.000  0.000
   593N    -0.32330 -0.68294   1.428  3.896  0.000
   594C     0.11117  0.11605   1.035  2.854  0.000
   595C     0.47170  0.57607   0.990  2.538  0.000
   596O    -0.60716 -0.66903   1.729  4.878  0.000
   597C    -0.08764 -0.17724   1.047  3.041  0.000
   598C     0.48869  0.58322   0.991  2.521  0.000
   599O    -0.61393 -0.68763   1.723  4.891  0.000
   600N    -0.38496 -0.84313   1.423  3.962  0.000
   601H     0.26052  0.47534   0.739  0.000  0.000
   602H     0.06242  0.14735   0.938  0.000  0.000
   603H     0.06098  0.13430   0.939  0.000  0.000
   604H     0.05763  0.12253   0.942  0.000  0.000
   605H     0.25687  0.44719   0.743  0.000  0.000
   606H     0.25877  0.45888   0.741  0.000  0.000
   607N    -0.32207 -0.68393   1.431  3.891  0.000
   608C     0.08035  0.08756   1.041  2.878  0.000
   609C     0.47348  0.57889   0.989  2.537  0.000
   610O    -0.60820 -0.67827   1.728  4.880  0.000
   611C     0.22884  0.18595   1.017  2.754  0.000
   612O    -0.59278 -0.82227   1.711  4.882  0.000
   613C    -0.10441 -0.25193   1.020  3.085  0.000
   614H     0.25898  0.46775   0.741  0.000  0.000
   615H     0.06406  0.15449   0.936  0.000  0.000
   616H     0.01700  0.08831   0.983  0.000  0.000
   617H     0.36869  0.56095   0.631  0.000  0.000
   618H     0.03334  0.09105   0.967  0.000  0.000
   619H     0.02943  0.08791   0.971  0.000  0.000
   620H     0.04567  0.11122   0.954  0.000  0.000
   621N    -0.31290 -0.67201   1.430  3.883  0.000
   622C     0.08721  0.08671   1.047  2.865  0.000
   623C     0.57816  0.64119   0.965  2.457  0.000
   624O    -0.66645 -0.75221   1.728  4.938  0.000
   625C    -0.04483 -0.14171   1.037  3.007  0.000
   626C    -0.00909 -0.02392   1.084  2.926  0.000
   627C    -0.03575 -0.08949   1.063  2.973  0.000
   628C    -0.03580 -0.09015   1.060  2.976  0.000
   629C    -0.07682 -0.12977   1.057  3.020  0.000
   630C    -0.08819 -0.14179   1.062  3.026  0.000
   631C     0.25347  0.26228   1.020  2.726  0.000
   632O    -0.55664 -0.76829   1.708  4.849  0.000
   633O    -0.70242 -0.76245   1.744  4.958  0.000
   634H     0.25501  0.46001   0.745  0.000  0.000
   635H     0.04175  0.12285   0.958  0.000  0.000
   636H     0.03922  0.10261   0.961  0.000  0.000
   637H     0.03898  0.09832   0.961  0.000  0.000
   638H     0.02993  0.09435   0.970  0.000  0.000
   639H     0.02816  0.08609   0.972  0.000  0.000
   640H     0.03834  0.10058   0.962  0.000  0.000
   641H     0.03862  0.10073   0.961  0.000  0.000
   642H     0.37734  0.56915   0.623  0.000  0.000
   643N    -0.20460 -0.80441   1.460  3.745  0.000
   644C     0.07682  0.07149   1.046  2.877  0.000
   645C     0.47452  0.57648   0.983  2.542  0.000
   646O    -0.59345 -0.65660   1.729  4.864  0.000
   647C    -0.10270 -0.19288   1.051  3.051  0.000
   648C     0.47922  0.57153   0.994  2.526  0.000
   649O    -0.61884 -0.69082   1.732  4.886  0.000
   650N    -0.39674 -0.85195   1.427  3.970  0.000
   651H     0.29608  0.49039   0.704  0.000  0.000
   652H     0.29402  0.48291   0.706  0.000  0.000
   653H     0.27781  0.45903   0.722  0.000  0.000
   654H     0.09488  0.18345   0.905  0.000  0.000
   655H     0.08720  0.15163   0.913  0.000  0.000
   656H     0.09677  0.16051   0.903  0.000  0.000
   657H     0.27959  0.46834   0.720  0.000  0.000
   658H     0.28511  0.47082   0.715  0.000  0.000
   659N    -0.30777 -0.67760   1.426  3.882  0.000
   660C     0.09002  0.08787   1.040  2.870  0.000
   661C     0.38490  0.35773   1.063  2.552  0.000
   662O    -0.51257 -0.57667   1.745  4.768  0.000
   663C    -0.00176 -0.07105   1.058  2.944  0.000
   664C    -0.10094 -0.25099   1.016  3.085  0.000
   665C    -0.08086 -0.23005   1.014  3.067  0.000
   666H     0.26422  0.46914   0.736  0.000  0.000
   667H     0.06533  0.14213   0.935  0.000  0.000
   668H     0.03477  0.09908   0.965  0.000  0.000
   669H     0.04575  0.09875   0.954  0.000  0.000
   670H     0.03912  0.09375   0.961  0.000  0.000
   671H     0.03905  0.09224   0.961  0.000  0.000
   672H     0.03201  0.08576   0.968  0.000  0.000
   673H     0.03757  0.09536   0.962  0.000  0.000
   674H     0.03968  0.10149   0.960  0.000  0.000
   675N    -0.19949 -0.80441   1.458  3.741  0.000
   676C     0.07910  0.07386   1.045  2.876  0.000
   677C     0.47740  0.57906   0.985  2.538  0.000
   678O    -0.59334 -0.67333   1.725  4.868  0.000
   679C    -0.09885 -0.18890   1.050  3.049  0.000
   680C     0.48196  0.57436   0.994  2.525  0.000
   681O    -0.61694 -0.68896   1.732  4.884  0.000
   682N    -0.39814 -0.85347   1.426  3.972  0.000
   683H     0.28557  0.48446   0.714  0.000  0.000
   684H     0.27872  0.47330   0.721  0.000  0.000
   685H     0.28063  0.48334   0.719  0.000  0.000
   686H     0.08631  0.17492   0.914  0.000  0.000
   687H     0.08329  0.15098   0.917  0.000  0.000
   688H     0.09024  0.15404   0.910  0.000  0.000
   689H     0.27848  0.46725   0.722  0.000  0.000
   690H     0.28304  0.46882   0.717  0.000  0.000
   691N    -0.30550 -0.67483   1.427  3.878  0.000
   692C     0.09033  0.08833   1.040  2.870  0.000
   693C     0.38642  0.35958   1.062  2.552  0.000
   694O    -0.52206 -0.57890   1.747  4.775  0.000
   695C    -0.00121 -0.07029   1.057  2.944  0.000
   696C    -0.09504 -0.24556   1.016  3.079  0.000
   697C    -0.07986 -0.22987   1.015  3.065  0.000
   698H     0.26447  0.46901   0.736  0.000  0.000
   699H     0.06457  0.14691   0.935  0.000  0.000
   700H     0.03480  0.09870   0.965  0.000  0.000
   701H     0.04323  0.09643   0.957  0.000  0.000
   702H     0.03732  0.09206   0.963  0.000  0.000
   703H     0.03819  0.09299   0.962  0.000  0.000
   704H     0.03212  0.08632   0.968  0.000  0.000
   705H     0.03542  0.09399   0.965  0.000  0.000
   706H     0.03892  0.10075   0.961  0.000  0.000
   707N    -0.52992 -1.04195   1.439  4.091  0.000
   708C     0.08785  0.08657   1.039  2.874  0.000
   709C     0.46612  0.57093   0.998  2.535  0.000
   710O    -0.61484 -0.66928   1.736  4.879  0.000
   711C    -0.00920 -0.07883   1.057  2.953  0.000
   712C    -0.08937 -0.23990   1.013  3.076  0.000
   713C    -0.08781 -0.23887   1.016  3.072  0.000
   714H     0.21310  0.40096   0.787  0.000  0.000
   715H     0.02801  0.10335   0.972  0.000  0.000
   716H     0.02354  0.08731   0.976  0.000  0.000
   717H     0.03321  0.08665   0.967  0.000  0.000
   718H     0.02433  0.08128   0.976  0.000  0.000
   719H     0.02951  0.08360   0.970  0.000  0.000
   720H     0.02713  0.08120   0.973  0.000  0.000
   721H     0.03546  0.09269   0.965  0.000  0.000
   722H     0.03915  0.09751   0.961  0.000  0.000
   723N    -0.33219 -0.69986   1.424  3.908  0.000
   724C     0.06277  0.02629   1.016  2.921  0.000
   725C     0.47568  0.57532   0.995  2.529  0.000
   726O    -0.59665 -0.67857   1.728  4.869  0.000
   727H     0.25259  0.44588   0.747  0.000  0.000
   728H     0.08613  0.17043   0.914  0.000  0.000
   729H     0.05840  0.13472   0.942  0.000  0.000
   730N    -0.31966 -0.67145   1.428  3.892  0.000
   731C     0.08239  0.08636   1.044  2.874  0.000
   732C     0.46555  0.57144   0.992  2.542  0.000
   733O    -0.60903 -0.65393   1.736  4.873  0.000
   734C     0.19755  0.11898   0.993  2.810  0.000
   735O    -0.60652 -0.81653   1.705  4.902  0.000
   736H     0.25410  0.45572   0.746  0.000  0.000
   737H     0.06296  0.14433   0.937  0.000  0.000
   738H     0.03968  0.10903   0.960  0.000  0.000
   739H     0.04017  0.10634   0.960  0.000  0.000
   740H     0.38304  0.54777   0.617  0.000  0.000
   741N    -0.32127 -0.67846   1.424  3.897  0.000
   742C     0.10654  0.11145   1.036  2.858  0.000
   743C     0.46621  0.57120   0.990  2.544  0.000
   744O    -0.62027 -0.66241   1.737  4.884  0.000
   745C    -0.09266 -0.18248   1.049  3.044  0.000
   746C     0.48876  0.58326   0.988  2.523  0.000
   747O    -0.59623 -0.67049   1.722  4.875  0.000
   748N    -0.38691 -0.84571   1.422  3.965  0.000
   749H     0.25034  0.44893   0.750  0.000  0.000
   750H     0.06682  0.15169   0.933  0.000  0.000
   751H     0.05455  0.12305   0.945  0.000  0.000
   752H     0.06625  0.13109   0.934  0.000  0.000
   753H     0.26795  0.46930   0.732  0.000  0.000
   754H     0.24584  0.43693   0.754  0.000  0.000
   755N    -0.32550 -0.68658   1.430  3.895  0.000
   756C     0.07974  0.08736   1.040  2.880  0.000
   757C     0.47082  0.57646   0.988  2.541  0.000
   758O    -0.60018 -0.66986   1.728  4.873  0.000
   759C     0.22154  0.18024   1.018  2.760  0.000
   760O    -0.60917 -0.81233   1.709  4.900  0.000
   761C    -0.11572 -0.26221   1.021  3.095  0.000
   762H     0.26257  0.47130   0.737  0.000  0.000
   763H     0.05767  0.13997   0.942  0.000  0.000
   764H     0.02944  0.09917   0.971  0.000  0.000
   765H     0.37725  0.54314   0.623  0.000  0.000
   766H     0.04706  0.10160   0.953  0.000  0.000
   767H     0.03889  0.09633   0.961  0.000  0.000
   768H     0.04640  0.11124   0.954  0.000  0.000
   769N    -0.31888 -0.67509   1.430  3.889  0.000
   770C     0.07717  0.07684   1.050  2.873  0.000
   771C     0.56808  0.63373   0.959  2.473  0.000
   772O    -0.71911 -0.75768   1.741  4.978  0.000
   773C    -0.05473 -0.15119   1.038  3.017  0.000
   774C    -0.01307 -0.02769   1.084  2.930  0.000
   775C    -0.04386 -0.09724   1.062  2.982  0.000
   776C    -0.03470 -0.08899   1.060  2.974  0.000
   777C    -0.08007 -0.13262   1.056  3.024  0.000
   778C    -0.08376 -0.13733   1.063  3.021  0.000
   779C     0.25439  0.26331   1.021  2.725  0.000
   780O    -0.55683 -0.76833   1.709  4.848  0.000
   781O    -0.72586 -0.76844   1.748  4.978  0.000
   782H     0.24689  0.43977   0.753  0.000  0.000
   783H     0.04081  0.12185   0.959  0.000  0.000
   784H     0.03771  0.09784   0.962  0.000  0.000
   785H     0.04551  0.10457   0.954  0.000  0.000
   786H     0.03008  0.08951   0.970  0.000  0.000
   787H     0.03190  0.08980   0.968  0.000  0.000
   788H     0.04296  0.10313   0.957  0.000  0.000
   789H     0.04270  0.10481   0.957  0.000  0.000
   790H     0.38029  0.57209   0.620  0.000  0.000
   791N    -0.53581 -1.04920   1.439  4.097  0.000
   792C     0.06178  0.01862   1.013  2.925  0.000
   793C     0.46537  0.56299   1.001  2.534  0.000
   794O    -0.59298 -0.67544   1.728  4.865  0.000
   795H     0.22359  0.40783   0.776  0.000  0.000
   796H     0.05497  0.12788   0.945  0.000  0.000
   797H     0.03738  0.11072   0.963  0.000  0.000
   798N    -0.33297 -0.68718   1.430  3.903  0.000
   799C     0.08581  0.08983   1.043  2.871  0.000
   800C     0.46431  0.57031   0.993  2.543  0.000
   801O    -0.62119 -0.66357   1.738  4.883  0.000
   802C     0.19884  0.12034   0.993  2.809  0.000
   803O    -0.59856 -0.81420   1.704  4.894  0.000
   804H     0.26456  0.45969   0.735  0.000  0.000
   805H     0.06018  0.14383   0.940  0.000  0.000
   806H     0.03933  0.10775   0.961  0.000  0.000
   807H     0.04076  0.10862   0.959  0.000  0.000
   808H     0.38269  0.54793   0.617  0.000  0.000
   809N    -0.32744 -0.68649   1.427  3.900  0.000
   810C     0.11256  0.11013   1.034  2.853  0.000
   811C     0.39093  0.36442   1.058  2.551  0.000
   812O    -0.50972 -0.58123   1.738  4.771  0.000
   813C    -0.09504 -0.18523   1.049  3.046  0.000
   814C     0.48219  0.57758   0.988  2.530  0.000
   815O    -0.62539 -0.66979   1.733  4.892  0.000
   816N    -0.39943 -0.85792   1.424  3.975  0.000
   817H     0.26396  0.47868   0.736  0.000  0.000
   818H     0.07425  0.14931   0.926  0.000  0.000
   819H     0.06782  0.13767   0.932  0.000  0.000
   820H     0.07232  0.13276   0.928  0.000  0.000
   821H     0.25842  0.45947   0.742  0.000  0.000
   822H     0.25239  0.45215   0.748  0.000  0.000
   823N    -0.52952 -1.04374   1.436  4.093  0.000
   824C     0.05809  0.01518   1.014  2.927  0.000
   825C     0.46185  0.55944   1.003  2.535  0.000
   826O    -0.60272 -0.68517   1.728  4.875  0.000
   827H     0.21286  0.39986   0.787  0.000  0.000
   828H     0.07000  0.15394   0.930  0.000  0.000
   829H     0.03094  0.10450   0.969  0.000  0.000
   830N    -0.33186 -0.68751   1.431  3.901  0.000
   831C     0.08616  0.09018   1.042  2.872  0.000
   832C     0.46405  0.56992   0.992  2.544  0.000
   833O    -0.61875 -0.66369   1.737  4.882  0.000
   834C     0.19933  0.12082   0.993  2.808  0.000
   835O    -0.60360 -0.81891   1.705  4.898  0.000
   836H     0.25806  0.45871   0.742  0.000  0.000
   837H     0.05316  0.13683   0.947  0.000  0.000
   838H     0.04153  0.11089   0.958  0.000  0.000
   839H     0.03997  0.10786   0.960  0.000  0.000
   840H     0.38080  0.54607   0.619  0.000  0.000
   841N    -0.32702 -0.68610   1.428  3.899  0.000
   842C     0.11000  0.11498   1.034  2.856  0.000
   843C     0.46948  0.57410   0.991  2.539  0.000
   844O    -0.61057 -0.67072   1.729  4.881  0.000
   845C    -0.09147 -0.18079   1.047  3.044  0.000
   846C     0.48772  0.58252   0.989  2.524  0.000
   847O    -0.60941 -0.68259   1.722  4.887  0.000
   848N    -0.38615 -0.84549   1.424  3.962  0.000
   849H     0.25983  0.47465   0.740  0.000  0.000
   850H     0.05834  0.14321   0.942  0.000  0.000
   851H     0.06044  0.13375   0.940  0.000  0.000
   852H     0.05886  0.12341   0.941  0.000  0.000
   853H     0.26101  0.46249   0.739  0.000  0.000
   854H     0.25124  0.45153   0.749  0.000  0.000
   855N    -0.32370 -0.68454   1.431  3.893  0.000
   856C     0.07645  0.08390   1.041  2.882  0.000
   857C     0.46553  0.57186   0.988  2.547  0.000
   858O    -0.62782 -0.67535   1.736  4.892  0.000
   859C     0.22094  0.17872   1.018  2.761  0.000
   860O    -0.59907 -0.80858   1.709  4.890  0.000
   861C    -0.11523 -0.26101   1.019  3.096  0.000
   862H     0.26048  0.46884   0.740  0.000  0.000
   863H     0.06296  0.15332   0.937  0.000  0.000
   864H     0.02577  0.09617   0.974  0.000  0.000
   865H     0.37275  0.53880   0.627  0.000  0.000
   866H     0.04549  0.09952   0.955  0.000  0.000
   867H     0.04099  0.09770   0.959  0.000  0.000
   868H     0.04182  0.10011   0.958  0.000  0.000
   869N    -0.32312 -0.67993   1.431  3.893  0.000
   870C     0.07878  0.07912   1.047  2.874  0.000
   871C     0.56816  0.63416   0.960  2.472  0.000
   872O    -0.72280 -0.76129   1.741  4.982  0.000
   873C    -0.04519 -0.14193   1.036  3.009  0.000
   874C    -0.01238 -0.02708   1.084  2.929  0.000
   875C    -0.03982 -0.09353   1.062  2.977  0.000
   876C    -0.03880 -0.09287   1.061  2.978  0.000
   877C    -0.07884 -0.13176   1.056  3.023  0.000
   878C    -0.08903 -0.14243   1.063  3.026  0.000
   879C     0.25435  0.26328   1.021  2.725  0.000
   880O    -0.55595 -0.76740   1.708  4.847  0.000
   881O    -0.73846 -0.77918   1.749  4.989  0.000
   882H     0.24665  0.45114   0.753  0.000  0.000
   883H     0.03461  0.11458   0.965  0.000  0.000
   884H     0.03381  0.09716   0.966  0.000  0.000
   885H     0.03790  0.09713   0.962  0.000  0.000
   886H     0.02620  0.09061   0.974  0.000  0.000
   887H     0.03133  0.08892   0.969  0.000  0.000
   888H     0.03719  0.09943   0.963  0.000  0.000
   889H     0.04450  0.10619   0.956  0.000  0.000
   890H     0.38011  0.57181   0.620  0.000  0.000
   891N    -0.53955 -1.04369   1.443  4.097  0.000
   892C     0.08279  0.08040   1.041  2.876  0.000
   893C     0.46826  0.57300   0.997  2.535  0.000
   894O    -0.61829 -0.68058   1.733  4.886  0.000
   895C     0.19704  0.11653   0.995  2.808  0.000
   896O    -0.59570 -0.81641   1.703  4.892  0.000
   897H     0.21886  0.40500   0.781  0.000  0.000
   898H     0.03833  0.11648   0.962  0.000  0.000
   899H     0.02854  0.09753   0.971  0.000  0.000
   900H     0.03302  0.10375   0.967  0.000  0.000
   901H     0.36178  0.53366   0.638  0.000  0.000
   902N    -0.32903 -0.68759   1.426  3.903  0.000
   903C     0.10816  0.11292   1.034  2.858  0.000
   904C     0.47046  0.57477   0.990  2.539  0.000
   905O    -0.59789 -0.65975   1.728  4.870  0.000
   906C    -0.09455 -0.18385   1.048  3.047  0.000
   907C     0.48657  0.58211   0.988  2.525  0.000
   908O    -0.63278 -0.67585   1.734  4.899  0.000
   909N    -0.40799 -0.86218   1.424  3.984  0.000
   910H     0.25632  0.46844   0.744  0.000  0.000
   911H     0.05727  0.13641   0.943  0.000  0.000
   912H     0.06214  0.13538   0.938  0.000  0.000
   913H     0.05733  0.12103   0.943  0.000  0.000
   914H     0.26498  0.45361   0.735  0.000  0.000
   915H     0.25392  0.45196   0.746  0.000  0.000
   916N    -0.32402 -0.68432   1.429  3.895  0.000
   917C     0.07694  0.08422   1.042  2.881  0.000
   918C     0.46842  0.57447   0.988  2.543  0.000
   919O    -0.62980 -0.67752   1.736  4.893  0.000
   920C     0.22732  0.18452   1.017  2.756  0.000
   921O    -0.58995 -0.81938   1.710  4.880  0.000
   922C    -0.10587 -0.25219   1.017  3.089  0.000
   923H     0.25317  0.44952   0.747  0.000  0.000
   924H     0.06850  0.15892   0.932  0.000  0.000
   925H     0.01915  0.09044   0.981  0.000  0.000
   926H     0.37076  0.56301   0.629  0.000  0.000
   927H     0.03764  0.09468   0.962  0.000  0.000
   928H     0.02954  0.08541   0.970  0.000  0.000
   929H     0.04017  0.09890   0.960  0.000  0.000
   930N    -0.31699 -0.67542   1.430  3.887  0.000
   931C     0.08502  0.08525   1.046  2.869  0.000
   932C     0.57572  0.64013   0.963  2.461  0.000
   933O    -0.67700 -0.74308   1.731  4.946  0.000
   934C    -0.04698 -0.14374   1.038  3.009  0.000
   935C    -0.00747 -0.02218   1.085  2.922  0.000
   936C    -0.03444 -0.08815   1.064  2.971  0.000
   937C    -0.03568 -0.08972   1.061  2.974  0.000
   938C    -0.07467 -0.12760   1.057  3.018  0.000
   939C    -0.09293 -0.14595   1.063  3.030  0.000
   940C     0.24798  0.25688   1.020  2.732  0.000
   941O    -0.54593 -0.75645   1.706  4.840  0.000
   942O    -0.71828 -0.77413   1.745  4.973  0.000
   943H     0.25496  0.45995   0.745  0.000  0.000
   944H     0.04125  0.12123   0.959  0.000  0.000
   945H     0.04119  0.10458   0.959  0.000  0.000
   946H     0.04183  0.10111   0.958  0.000  0.000
   947H     0.03361  0.09802   0.966  0.000  0.000
   948H     0.03588  0.09346   0.964  0.000  0.000
   949H     0.04168  0.10391   0.958  0.000  0.000
   950H     0.04713  0.10622   0.953  0.000  0.000
   951H     0.37828  0.54690   0.622  0.000  0.000
   952N    -0.20083 -0.80385   1.459  3.742  0.000
   953C     0.08357  0.07793   1.043  2.874  0.000
   954C     0.47661  0.57944   0.983  2.540  0.000
   955O    -0.59971 -0.66758   1.724  4.875  0.000
   956C    -0.08969 -0.18001   1.045  3.044  0.000
   957C     0.48274  0.57539   0.988  2.530  0.000
   958O    -0.63745 -0.70920   1.729  4.909  0.000
   959N    -0.40314 -0.87008   1.432  3.971  0.000
   960H     0.28080  0.48127   0.719  0.000  0.000
   961H     0.27301  0.46646   0.727  0.000  0.000
   962H     0.27791  0.47850   0.722  0.000  0.000
   963H     0.07426  0.16011   0.926  0.000  0.000
   964H     0.07749  0.14818   0.923  0.000  0.000
   965H     0.07346  0.13922   0.927  0.000  0.000
   966H     0.27936  0.49439   0.721  0.000  0.000
   967H     0.27030  0.47551   0.730  0.000  0.000
   968N    -0.31791 -0.68097   1.429  3.889  0.000
   969C     0.08896  0.09291   1.042  2.869  0.000
   970C     0.46285  0.56769   0.995  2.543  0.000
   971O    -0.61181 -0.67432   1.730  4.882  0.000
   972C    -0.00212 -0.06999   1.057  2.945  0.000
   973C    -0.08616 -0.23602   1.015  3.071  0.000
   974C    -0.08320 -0.23301   1.012  3.071  0.000
   975H     0.26103  0.46645   0.739  0.000  0.000
   976H     0.05231  0.13658   0.948  0.000  0.000
   977H     0.03201  0.09593   0.968  0.000  0.000
   978H     0.04173  0.09504   0.958  0.000  0.000
   979H     0.02727  0.08403   0.973  0.000  0.000
   980H     0.03253  0.08704   0.967  0.000  0.000
   981H     0.03931  0.09264   0.961  0.000  0.000
   982H     0.03428  0.08924   0.966  0.000  0.000
   983H     0.03801  0.09539   0.962  0.000  0.000
   984N    -0.33473 -0.70063   1.432  3.903  0.000
   985C     0.06763  0.03142   1.013  2.919  0.000
   986C     0.47235  0.57433   0.991  2.537  0.000
   987O    -0.60930 -0.66560   1.734  4.876  0.000
   988H     0.27003  0.48160   0.730  0.000  0.000
   989H     0.07489  0.15694   0.925  0.000  0.000
   990H     0.05161  0.12665   0.948  0.000  0.000
   991N    -0.32009 -0.67460   1.424  3.896  0.000
   992C     0.09032  0.09527   1.039  2.871  0.000
   993C     0.46583  0.57034   0.994  2.540  0.000
   994O    -0.60102 -0.67381   1.728  4.873  0.000
   995C     0.20620  0.12720   0.989  2.804  0.000
   996O    -0.59936 -0.81838   1.700  4.899  0.000
   997H     0.24272  0.44382   0.757  0.000  0.000
   998H     0.05167  0.13617   0.948  0.000  0.000
   999H     0.03339  0.10695   0.967  0.000  0.000
  1000H     0.03936  0.11276   0.961  0.000  0.000
  1001H     0.35631  0.53341   0.644  0.000  0.000
  1002N    -0.32437 -0.68320   1.430  3.895  0.000
  1003C     0.11083  0.11543   1.037  2.852  0.000
  1004C     0.46894  0.57337   0.991  2.540  0.000
  1005O    -0.60886 -0.67131   1.726  4.883  0.000
  1006C    -0.08731 -0.17671   1.048  3.040  0.000
  1007C     0.48600  0.57858   0.994  2.520  0.000
  1008O    -0.60405 -0.67996   1.725  4.879  0.000
  1009N    -0.39490 -0.84928   1.425  3.970  0.000
  1010H     0.26025  0.47615   0.740  0.000  0.000
  1011H     0.06268  0.14834   0.937  0.000  0.000
  1012H     0.05625  0.12990   0.944  0.000  0.000
  1013H     0.05758  0.12239   0.942  0.000  0.000
  1014H     0.25565  0.45508   0.744  0.000  0.000
  1015H     0.25251  0.44935   0.747  0.000  0.000
  1016N    -0.31500 -0.67535   1.429  3.886  0.000
  1017C     0.08449  0.09160   1.041  2.875  0.000
  1018C     0.47310  0.57822   0.988  2.539  0.000
  1019O    -0.60339 -0.67238   1.726  4.877  0.000
  1020C     0.22734  0.18431   1.022  2.751  0.000
  1021O    -0.59830 -0.81200   1.711  4.888  0.000
  1022C    -0.09328 -0.24050   1.017  3.076  0.000
  1023H     0.25894  0.46596   0.741  0.000  0.000
  1024H     0.05496  0.14301   0.945  0.000  0.000
  1025H     0.03062  0.10378   0.969  0.000  0.000
  1026H     0.36411  0.55030   0.636  0.000  0.000
  1027H     0.04213  0.10140   0.958  0.000  0.000
  1028H     0.03586  0.09430   0.964  0.000  0.000
  1029H     0.02536  0.08500   0.975  0.000  0.000
  1030N    -0.33045 -0.68845   1.434  3.896  0.000
  1031C     0.09269  0.09207   1.045  2.863  0.000
  1032C     0.57441  0.63759   0.961  2.464  0.000
  1033O    -0.67936 -0.75667   1.736  4.943  0.000
  1034C    -0.04885 -0.14527   1.033  3.016  0.000
  1035C    -0.01228 -0.02712   1.080  2.932  0.000
  1036C    -0.04116 -0.09475   1.061  2.980  0.000
  1037C    -0.03318 -0.08781   1.059  2.974  0.000
  1038C    -0.08515 -0.13787   1.056  3.029  0.000
  1039C    -0.08562 -0.13882   1.058  3.027  0.000
  1040C     0.25228  0.26298   1.020  2.728  0.000
  1041O    -0.56486 -0.76140   1.705  4.860  0.000
  1042O    -0.68906 -0.74958   1.739  4.950  0.000
  1043H     0.25747  0.46991   0.743  0.000  0.000
  1044H     0.04328  0.12411   0.957  0.000  0.000
  1045H     0.03673  0.09896   0.963  0.000  0.000
  1046H     0.03976  0.10018   0.960  0.000  0.000
  1047H     0.03253  0.09692   0.967  0.000  0.000
  1048H     0.02790  0.08612   0.972  0.000  0.000
  1049H     0.03649  0.09913   0.964  0.000  0.000
  1050H     0.03438  0.09834   0.966  0.000  0.000
  1051H     0.36942  0.55976   0.631  0.000  0.000
  1052N    -0.20172 -0.80473   1.460  3.742  0.000
  1053C     0.08134  0.07571   1.043  2.875  0.000
  1054C     0.47655  0.57931   0.983  2.540  0.000
  1055O    -0.59588 -0.66362   1.724  4.872  0.000
  1056C    -0.09234 -0.18240   1.046  3.047  0.000
  1057C     0.48443  0.57731   0.989  2.526  0.000
  1058O    -0.62519 -0.69660   1.728  4.897  0.000
  1059N    -0.39936 -0.85867   1.427  3.972  0.000
  1060H     0.28611  0.48658   0.714  0.000  0.000
  1061H     0.27654  0.46998   0.723  0.000  0.000
  1062H     0.27973  0.48031   0.720  0.000  0.000
  1063H     0.07987  0.16571   0.920  0.000  0.000
  1064H     0.08300  0.15324   0.917  0.000  0.000
  1065H     0.08076  0.14503   0.919  0.000  0.000
  1066H     0.26554  0.45571   0.734  0.000  0.000
  1067H     0.28191  0.48564   0.718  0.000  0.000
  1068N    -0.31376 -0.67723   1.429  3.884  0.000
  1069C     0.09048  0.08725   1.041  2.868  0.000
  1070C     0.38949  0.36292   1.060  2.551  0.000
  1071O    -0.51938 -0.57726   1.745  4.774  0.000
  1072C    -0.00301 -0.07135   1.059  2.944  0.000
  1073C    -0.09510 -0.24500   1.018  3.077  0.000
  1074C    -0.08369 -0.23352   1.013  3.071  0.000
  1075H     0.26517  0.47029   0.735  0.000  0.000
  1076H     0.06001  0.13927   0.940  0.000  0.000
  1077H     0.03791  0.10166   0.962  0.000  0.000
  1078H     0.04680  0.09925   0.953  0.000  0.000
  1079H     0.03850  0.09355   0.961  0.000  0.000
  1080H     0.03867  0.09246   0.961  0.000  0.000
  1081H     0.04080  0.09411   0.959  0.000  0.000
  1082H     0.03590  0.09084   0.964  0.000  0.000
  1083H     0.03796  0.09533   0.962  0.000  0.000
  1084N    -0.21329 -0.81428   1.461  3.752  0.000
  1085C     0.08276  0.07707   1.043  2.874  0.000
  1086C     0.47327  0.57623   0.983  2.544  0.000
  1087O    -0.59742 -0.65934   1.726  4.871  0.000
  1088C    -0.09239 -0.18283   1.046  3.046  0.000
  1089C     0.48126  0.57389   0.987  2.531  0.000
  1090O    -0.63107 -0.70282   1.728  4.903  0.000
  1091N    -0.40552 -0.87238   1.432  3.973  0.000
  1092H     0.28879  0.48900   0.711  0.000  0.000
  1093H     0.28551  0.47492   0.714  0.000  0.000
  1094H     0.27477  0.46770   0.725  0.000  0.000
  1095H     0.08288  0.16877   0.917  0.000  0.000
  1096H     0.07612  0.14341   0.924  0.000  0.000
  1097H     0.07649  0.14220   0.924  0.000  0.000
  1098H     0.27873  0.49375   0.721  0.000  0.000
  1099H     0.26873  0.47384   0.731  0.000  0.000
  1100N    -0.31750 -0.68107   1.428  3.890  0.000
  1101C     0.08863  0.09248   1.043  2.869  0.000
  1102C     0.46790  0.57245   0.996  2.537  0.000
  1103O    -0.61253 -0.67936   1.728  4.885  0.000
  1104C     0.00049 -0.06773   1.058  2.942  0.000
  1105C    -0.09024 -0.24004   1.017  3.074  0.000
  1106C    -0.08184 -0.23173   1.012  3.070  0.000
  1107H     0.25871  0.46448   0.741  0.000  0.000
  1108H     0.05679  0.14102   0.943  0.000  0.000
  1109H     0.02872  0.09308   0.971  0.000  0.000
  1110H     0.04604  0.09927   0.954  0.000  0.000
  1111H     0.03171  0.08825   0.968  0.000  0.000
  1112H     0.03463  0.08880   0.965  0.000  0.000
  1113H     0.04017  0.09351   0.960  0.000  0.000
  1114H     0.03442  0.08937   0.966  0.000  0.000
  1115H     0.03715  0.09455   0.963  0.000  0.000
  1116N    -0.32863 -0.69448   1.431  3.898  0.000
  1117C     0.06487  0.02775   1.015  2.920  0.000
  1118C     0.47349  0.57458   0.992  2.535  0.000
  1119O    -0.59420 -0.67326   1.727  4.867  0.000
  1120H     0.27726  0.48790   0.723  0.000  0.000
  1121H     0.07311  0.14283   0.927  0.000  0.000
  1122H     0.07002  0.14288   0.930  0.000  0.000
  1123N    -0.31201 -0.66668   1.426  3.886  0.000
  1124C     0.08927  0.09422   1.039  2.871  0.000
  1125C     0.46631  0.57082   0.993  2.540  0.000
  1126O    -0.60043 -0.67322   1.728  4.872  0.000
  1127C     0.20687  0.12787   0.989  2.804  0.000
  1128O    -0.60126 -0.82003   1.701  4.900  0.000
  1129H     0.25118  0.45223   0.749  0.000  0.000
  1130H     0.05287  0.13740   0.947  0.000  0.000
  1131H     0.03585  0.10940   0.964  0.000  0.000
  1132H     0.04011  0.11351   0.960  0.000  0.000
[...]
  1278   7 N    3.364 --  1273 C    1.300  1279 C    0.934  1284 H    0.894
                          1274 O    0.155
  1279   6 C    3.947 --  1282 C    0.987  1285 H    0.965  1280 C    0.943
                          1278 N    0.934
  1280   6 C    3.898 --  1281 O    1.564  1289 N    1.309  1279 C    0.943
  1281   8 O    1.865 --  1280 C    1.564  1289 N    0.170
  1282   6 C    3.922 --  1279 C    0.987  1286 H    0.972  1287 H    0.972
                          1283 O    0.961
  1283   8 O    1.867 --  1282 C    0.961  1288 H    0.848
  1284   1 H    0.959 --  1278 N    0.894
  1285   1 H    1.011 --  1279 C    0.965
  1286   1 H    1.015 --  1282 C    0.972
  1287   1 H    1.009 --  1282 C    0.972
  1288   1 H    0.861 --  1283 O    0.848
  1289   7 N    3.372 --  1280 C    1.309  1290 C    0.943  1297 H    0.900
                          1281 O    0.170
  1290   6 C    3.943 --  1293 C    0.965  1298 H    0.958  1289 N    0.943
                          1291 C    0.942
  1291   6 C    3.902 --  1292 O    1.571  1303 N    1.306  1290 C    0.942
  1292   8 O    1.865 --  1291 C    1.571  1303 N    0.171
  1293   6 C    3.991 --  1294 C    0.970  1299 H    0.968  1290 C    0.965
                          1300 H    0.961
  1294   6 C    3.890 --  1295 O    1.541  1296 N    1.333  1293 C    0.970
  1295   8 O    1.922 --  1294 C    1.541  1296 N    0.163
  1296   7 N    3.332 --  1294 C    1.333  1302 H    0.910  1301 H    0.879
                          1295 O    0.163
  1297   1 H    0.949 --  1289 N    0.900
  1298   1 H    1.026 --  1290 C    0.958
  1299   1 H    1.008 --  1293 C    0.968
  1300   1 H    1.011 --  1293 C    0.961
  1301   1 H    0.953 --  1296 N    0.879
  1302   1 H    0.950 --  1296 N    0.910
  1303   7 N    3.371 --  1291 C    1.306  1304 C    0.944  1310 H    0.876
                          1292 O    0.171
  1304   6 C    3.948 --  1311 H    0.964  1307 C    0.958  1305 C    0.950
                          1303 N    0.944
  1305   6 C    3.902 --  1306 O    1.536  1317 N    1.325  1304 C    0.950
  1306   8 O    1.914 --  1305 C    1.536  1317 N    0.168
  1307   6 C    3.917 --  1309 C    1.001  1312 H    0.969  1304 C    0.958
                          1308 O    0.942
  1308   8 O    1.895 --  1307 C    0.942  1313 H    0.856
  1309   6 C    3.993 --  1307 C    1.001  1316 H    0.986  1315 H    0.983
                          1314 H    0.983
  1310   1 H    0.959 --  1303 N    0.876
  1311   1 H    1.013 --  1304 C    0.964
  1312   1 H    1.008 --  1307 C    0.969
  1313   1 H    0.872 --  1308 O    0.856
  1314   1 H    1.001 --  1309 C    0.983
  1315   1 H    1.001 --  1309 C    0.983
  1316   1 H    1.006 --  1309 C    0.986
  1317   7 N    3.379 --  1305 C    1.325  1318 C    0.924  1330 H    0.903
                          1306 O    0.168
  1318   6 C    3.920 --  1321 C    0.960  1331 H    0.955  1317 N    0.924
                          1319 C    0.919
  1319   6 C    3.882 --  1320 O    1.475  1329 O    1.448  1318 C    0.919
  1320   8 O    1.760 --  1319 C    1.475  1329 O    0.176
  1321   6 C    3.994 --  1322 C    1.011  1332 H    0.974  1333 H    0.969
                          1318 C    0.960
  1322   6 C    3.989 --  1324 C    1.409  1323 C    1.404  1321 C    1.011
  1323   6 C    3.994 --  1325 C    1.460  1322 C    1.404  1334 H    0.972
                          1326 C    0.105
  1324   6 C    3.994 --  1326 C    1.450  1322 C    1.409  1335 H    0.970
                          1325 C    0.105
  1325   6 C    3.990 --  1323 C    1.460  1327 C    1.364  1336 H    0.965
                          1324 C    0.105
  1326   6 C    3.990 --  1324 C    1.450  1327 C    1.374  1337 H    0.960
                          1323 C    0.105
  1327   6 C    3.909 --  1326 C    1.374  1325 C    1.364  1328 O    1.031
  1328   8 O    2.035 --  1327 C    1.031  1338 H    0.795
  1329   8 O    1.821 --  1319 C    1.448  1320 O    0.176
  1330   1 H    0.952 --  1317 N    0.903
  1331   1 H    1.027 --  1318 C    0.955
  1332   1 H    1.003 --  1321 C    0.974
  1333   1 H    1.013 --  1321 C    0.969
  1334   1 H    1.005 --  1323 C    0.972
  1335   1 H    1.005 --  1324 C    0.970
  1336   1 H    1.005 --  1325 C    0.965
  1337   1 H    1.015 --  1326 C    0.960
  1338   1 H    0.883 --  1328 O    0.795
  1339   7 N    2.943 --  1340 C    0.986  1346 H    0.944  1531 H    0.933
  1340   6 C    3.973 --  1339 N    0.986  1347 H    0.973  1343 C    0.961
                          1341 C    0.958
  1341   6 C    3.874 --  1342 O    1.542  1355 N    1.290  1340 C    0.958
  1342   8 O    1.894 --  1341 C    1.542  1355 N    0.155
  1343   6 C    3.992 --  1345 C    1.010  1344 C    1.001  1348 H    0.969
                          1340 C    0.961
  1344   6 C    3.997 --  1343 C    1.001  1351 H    0.983  1350 H    0.983
                          1349 H    0.983
  1345   6 C    3.996 --  1343 C    1.010  1353 H    0.981  1354 H    0.980
                          1352 H    0.978
  1346   1 H    0.965 --  1339 N    0.944
  1347   1 H    1.006 --  1340 C    0.973
  1348   1 H    1.015 --  1343 C    0.969
  1349   1 H    1.010 --  1344 C    0.983
  1350   1 H    1.009 --  1344 C    0.983
  1351   1 H    1.007 --  1344 C    0.983
  1352   1 H    1.008 --  1345 C    0.978
  1353   1 H    1.005 --  1345 C    0.981
  1354   1 H    1.003 --  1345 C    0.980
  1355   7 N    3.351 --  1341 C    1.290  1356 C    0.948  1359 H    0.901
                          1342 O    0.155
  1356   6 C    3.945 --  1357 C    0.968  1361 H    0.961  1355 N    0.948
                          1360 H    0.942
  1357   6 C    3.890 --  1358 O    1.528  1362 N    1.307  1356 C    0.968
  1358   8 O    1.925 --  1357 C    1.528  1362 N    0.155
  1359   1 H    0.942 --  1355 N    0.901
  1360   1 H    1.021 --  1356 C    0.942
  1361   1 H    1.022 --  1356 C    0.961
  1362   7 N    3.369 --  1357 C    1.307  1363 C    0.932  1368 H    0.893
                          1358 O    0.155
  1363   6 C    3.946 --  1366 C    0.988  1369 H    0.966  1364 C    0.942
                          1362 N    0.932
  1364   6 C    3.902 --  1365 O    1.553  1373 N    1.326  1363 C    0.942
  1365   8 O    1.858 --  1364 C    1.553  1373 N    0.173
  1366   6 C    3.917 --  1363 C    0.988  1370 H    0.972  1371 H    0.970
                          1367 O    0.955
  1367   8 O    1.888 --  1366 C    0.955  1372 H    0.849
  1368   1 H    0.957 --  1362 N    0.893
  1369   1 H    1.017 --  1363 C    0.966
  1370   1 H    1.015 --  1366 C    0.972
  1371   1 H    1.020 --  1366 C    0.970
  1372   1 H    0.864 --  1367 O    0.849
  1373   7 N    3.378 --  1364 C    1.326  1374 C    0.947  1381 H    0.862
                          1365 O    0.173
  1374   6 C    3.948 --  1377 C    0.964  1382 H    0.959  1373 N    0.947
                          1375 C    0.944
  1375   6 C    3.897 --  1376 O    1.544  1387 N    1.320  1374 C    0.944
  1376   8 O    1.900 --  1375 C    1.544  1387 N    0.167
  1377   6 C    3.989 --  1378 C    0.970  1383 H    0.966  1384 H    0.965
                          1374 C    0.964
  1378   6 C    3.891 --  1379 O    1.533  1380 N    1.343  1377 C    0.970
  1379   8 O    1.912 --  1378 C    1.533  1380 N    0.165
  1380   7 N    3.337 --  1378 C    1.343  1386 H    0.896  1385 H    0.883
                          1379 O    0.165
  1381   1 H    0.956 --  1373 N    0.862
  1382   1 H    1.025 --  1374 C    0.959
  1383   1 H    1.019 --  1377 C    0.966
  1384   1 H    1.009 --  1377 C    0.965
  1385   1 H    0.956 --  1380 N    0.883
  1386   1 H    0.962 --  1380 N    0.896
  1387   7 N    3.379 --  1375 C    1.320  1388 C    0.938  1394 H    0.880
                          1376 O    0.167
  1388   6 C    3.941 --  1395 H    0.962  1391 C    0.960  1389 C    0.947
                          1387 N    0.938
  1389   6 C    3.910 --  1390 O    1.548  1401 N    1.332  1388 C    0.947
  1390   8 O    1.845 --  1389 C    1.548  1401 N    0.177
  1391   6 C    3.918 --  1393 C    1.000  1396 H    0.969  1388 C    0.960
                          1392 O    0.943
  1392   8 O    1.873 --  1391 C    0.943  1397 H    0.858
  1393   6 C    3.994 --  1391 C    1.000  1400 H    0.986  1398 H    0.983
                          1399 H    0.981
  1394   1 H    0.960 --  1387 N    0.880
  1395   1 H    1.027 --  1388 C    0.962
  1396   1 H    1.012 --  1391 C    0.969
  1397   1 H    0.872 --  1392 O    0.858
  1398   1 H    1.003 --  1393 C    0.983
  1399   1 H    1.015 --  1393 C    0.981
  1400   1 H    1.007 --  1393 C    0.986
  1401   7 N    3.379 --  1389 C    1.332  1402 C    0.928  1414 H    0.873
                          1390 O    0.177
  1402   6 C    3.922 --  1415 H    0.966  1405 C    0.960  1401 N    0.928
                          1403 C    0.913
  1403   6 C    3.888 --  1413 O    1.469  1404 O    1.467  1402 C    0.913
  1404   8 O    1.726 --  1403 C    1.467  1413 O    0.179
  1405   6 C    3.995 --  1406 C    1.011  1417 H    0.969  1416 H    0.964
                          1402 C    0.960
  1406   6 C    3.989 --  1408 C    1.409  1407 C    1.403  1405 C    1.011
  1407   6 C    3.993 --  1409 C    1.459  1406 C    1.403  1418 H    0.969
                          1410 C    0.105
  1408   6 C    3.994 --  1410 C    1.450  1406 C    1.409  1419 H    0.971
                          1409 C    0.105
  1409   6 C    3.990 --  1407 C    1.459  1411 C    1.364  1420 H    0.963
                          1408 C    0.105
  1410   6 C    3.989 --  1408 C    1.450  1411 C    1.375  1421 H    0.960
                          1407 C    0.105
  1411   6 C    3.908 --  1410 C    1.375  1409 C    1.364  1412 O    1.028
  1412   8 O    2.032 --  1411 C    1.028  1422 H    0.796
  1413   8 O    1.767 --  1403 C    1.469  1404 O    0.179
  1414   1 H    0.964 --  1401 N    0.873
  1415   1 H    1.024 --  1402 C    0.966
  1416   1 H    1.016 --  1405 C    0.964
  1417   1 H    1.015 --  1405 C    0.969
  1418   1 H    1.020 --  1407 C    0.969
  1419   1 H    1.005 --  1408 C    0.971
  1420   1 H    1.011 --  1409 C    0.963
  1421   1 H    1.012 --  1410 C    0.960
  1422   1 H    0.882 --  1412 O    0.796
  1423   7 N    2.936 --  1424 C    0.994  1532 H    0.949  1427 H    0.910
  1424   6 C    3.979 --  1423 N    0.994  1429 H    0.978  1425 C    0.974
                          1428 H    0.945
  1425   6 C    3.884 --  1426 O    1.552  1430 N    1.282  1424 C    0.974
  1426   8 O    1.845 --  1425 C    1.552  1430 N    0.155
  1427   1 H    0.973 --  1423 N    0.910
  1428   1 H    1.023 --  1424 C    0.945
  1429   1 H    1.024 --  1424 C    0.978
  1430   7 N    3.350 --  1425 C    1.282  1431 C    0.936  1436 H    0.894
                          1426 O    0.155
  1431   6 C    3.949 --  1434 C    0.986  1437 H    0.965  1432 C    0.945
                          1430 N    0.936
  1432   6 C    3.893 --  1433 O    1.544  1441 N    1.316  1431 C    0.945
  1433   8 O    1.911 --  1432 C    1.544  1441 N    0.166
  1434   6 C    3.917 --  1431 C    0.986  1438 H    0.970  1439 H    0.964
                          1435 O    0.955
  1435   8 O    1.875 --  1434 C    0.955  1440 H    0.857
  1436   1 H    0.958 --  1430 N    0.894
  1437   1 H    1.011 --  1431 C    0.965
  1438   1 H    1.022 --  1434 C    0.970
  1439   1 H    1.021 --  1434 C    0.964
  1440   1 H    0.874 --  1435 O    0.857
  1441   7 N    3.376 --  1432 C    1.316  1442 C    0.944  1449 H    0.898
                          1433 O    0.166
  1442   6 C    3.943 --  1445 C    0.965  1450 H    0.957  1441 N    0.944
                          1443 C    0.941
  1443   6 C    3.902 --  1444 O    1.574  1455 N    1.303  1442 C    0.941
  1444   8 O    1.869 --  1443 C    1.574  1455 N    0.170
  1445   6 C    3.991 --  1451 H    0.975  1446 C    0.972  1442 C    0.965
                          1452 H    0.960
  1446   6 C    3.888 --  1447 O    1.546  1448 N    1.324  1445 C    0.972
  1447   8 O    1.923 --  1446 C    1.546  1448 N    0.161
  1448   7 N    3.318 --  1446 C    1.324  1454 H    0.903  1453 H    0.894
                          1447 O    0.161
  1449   1 H    0.948 --  1441 N    0.898
  1450   1 H    1.024 --  1442 C    0.957
  1451   1 H    0.994 --  1445 C    0.975
  1452   1 H    1.008 --  1445 C    0.960
  1453   1 H    0.932 --  1448 N    0.894
  1454   1 H    0.939 --  1448 N    0.903
  1455   7 N    3.369 --  1443 C    1.303  1456 C    0.943  1462 H    0.875
                          1444 O    0.170
  1456   6 C    3.949 --  1457 C    0.988  1463 H    0.961  1455 N    0.943
                          1459 C    0.938
  1457   6 C    3.816 --  1458 O    1.794  1456 C    0.988  1533 H    0.960
  1458   8 O    2.008 --  1457 C    1.794
  1459   6 C    3.923 --  1461 C    0.995  1464 H    0.963  1460 O    0.955
                          1456 C    0.938
  1460   8 O    1.900 --  1459 C    0.955  1465 H    0.820
  1461   6 C    3.994 --  1459 C    0.995  1467 H    0.982  1468 H    0.981
                          1466 H    0.980
  1462   1 H    0.956 --  1455 N    0.875
  1463   1 H    1.013 --  1456 C    0.961
  1464   1 H    1.013 --  1459 C    0.963
  1465   1 H    0.889 --  1460 O    0.820
  1466   1 H    1.013 --  1461 C    0.980
  1467   1 H    1.003 --  1461 C    0.982
  1468   1 H    1.012 --  1461 C    0.981
  1469   7 N    2.941 --  1470 C    0.994  1534 H    0.941  1473 H    0.941
  1470   6 C    3.978 --  1469 N    0.994  1471 C    0.974  1475 H    0.966
                          1474 H    0.952
  1471   6 C    3.881 --  1472 O    1.524  1476 N    1.298  1470 C    0.974
  1472   8 O    1.922 --  1471 C    1.524  1476 N    0.151
  1473   1 H    0.954 --  1469 N    0.941
  1474   1 H    1.007 --  1470 C    0.952
  1475   1 H    1.033 --  1470 C    0.966
  1476   7 N    3.358 --  1471 C    1.298  1477 C    0.933  1482 H    0.894
                          1472 O    0.151
  1477   6 C    3.947 --  1480 C    0.987  1483 H    0.966  1478 C    0.942
                          1476 N    0.933
  1478   6 C    3.901 --  1479 O    1.562  1487 N    1.317  1477 C    0.942
  1479   8 O    1.850 --  1478 C    1.562  1487 N    0.173
  1480   6 C    3.917 --  1477 C    0.987  1484 H    0.973  1485 H    0.970
                          1481 O    0.955
  1481   8 O    1.888 --  1480 C    0.955  1486 H    0.849
  1482   1 H    0.932 --  1476 N    0.894
  1483   1 H    1.017 --  1477 C    0.966
  1484   1 H    1.012 --  1480 C    0.973
  1485   1 H    1.021 --  1480 C    0.970
  1486   1 H    0.864 --  1481 O    0.849
  1487   7 N    3.371 --  1478 C    1.317  1488 C    0.951  1495 H    0.860
                          1479 O    0.173
  1488   6 C    3.954 --  1489 C    0.980  1496 H    0.955  1491 C    0.951
                          1487 N    0.951
  1489   6 C    3.812 --  1490 O    1.800  1488 C    0.980  1535 H    0.959
  1490   8 O    1.993 --  1489 C    1.800
  1491   6 C    3.985 --  1497 H    0.972  1498 H    0.964  1492 C    0.963
                          1488 C    0.951
  1492   6 C    3.900 --  1493 O    1.578  1494 N    1.321  1491 C    0.963
  1493   8 O    1.851 --  1492 C    1.578  1494 N    0.172
  1494   7 N    3.320 --  1492 C    1.321  1500 H    0.896  1499 H    0.885
                          1493 O    0.172
  1495   1 H    0.954 --  1487 N    0.860
  1496   1 H    1.008 --  1488 C    0.955
  1497   1 H    1.009 --  1491 C    0.972
  1498   1 H    1.001 --  1491 C    0.964
  1499   1 H    0.956 --  1494 N    0.885
  1500   1 H    0.961 --  1494 N    0.896
  1501   7 N    2.935 --  1502 C    0.978  1507 H    0.945  1536 H    0.937
  1502   6 C    3.975 --  1505 C    0.981  1501 N    0.978  1508 H    0.972
                          1503 C    0.952
  1503   6 C    3.887 --  1504 O    1.559  1512 N    1.300  1502 C    0.952
  1504   8 O    1.840 --  1503 C    1.559  1512 N    0.165
  1505   6 C    3.920 --  1502 C    0.981  1509 H    0.974  1510 H    0.965
                          1506 O    0.954
  1506   8 O    1.893 --  1505 C    0.954  1511 H    0.840
  1507   1 H    0.962 --  1501 N    0.945
  1508   1 H    1.010 --  1502 C    0.972
  1509   1 H    1.018 --  1505 C    0.974
  1510   1 H    1.028 --  1505 C    0.965
  1511   1 H    0.899 --  1506 O    0.840
  1512   7 N    3.355 --  1503 C    1.300  1513 C    0.953  1520 H    0.865
                          1504 O    0.165
  1513   6 C    3.958 --  1514 C    0.978  1521 H    0.956  1512 N    0.953
                          1516 C    0.951
  1514   6 C    3.816 --  1515 O    1.807  1513 C    0.978  1537 H    0.959
  1515   8 O    1.999 --  1514 C    1.807
  1516   6 C    3.987 --  1517 C    0.965  1522 H    0.965  1523 H    0.965
                          1513 C    0.951
  1517   6 C    3.894 --  1518 O    1.579  1519 N    1.312  1516 C    0.965
  1518   8 O    1.846 --  1517 C    1.579  1519 N    0.169
  1519   7 N    3.310 --  1517 C    1.312  1524 H    0.898  1525 H    0.895
                          1518 O    0.169
  1520   1 H    0.954 --  1512 N    0.865
  1521   1 H    1.011 --  1513 C    0.956
  1522   1 H    1.019 --  1516 C    0.965
  1523   1 H    1.003 --  1516 C    0.965
  1524   1 H    0.934 --  1519 N    0.898
  1525   1 H    0.958 --  1519 N    0.895
  1526   1 H    1.001 --     3 C    0.955
  1527   1 H    0.953 --    17 N    0.945
  1528   1 H    1.009 --  1218 C    0.962
  1529   1 H    1.005 --  1241 C    0.959
  1530   1 H    0.950 --  1255 N    0.935
  1531   1 H    0.947 --  1339 N    0.933
  1532   1 H    0.957 --  1423 N    0.949
  1533   1 H    1.005 --  1457 C    0.960
  1534   1 H    0.948 --  1469 N    0.941
  1535   1 H    1.004 --  1489 C    0.959
  1536   1 H    0.958 --  1501 N    0.937
  1537   1 H    1.006 --  1514 C    0.959
  1538   1 H    0.951 --   194 N    0.933
  1539   1 H    1.012 --   196 C    0.965
  1540   1 H    0.950 --   210 N    0.944
  1541   1 H    1.011 --   212 C    0.964
  1542   1 H    0.948 --   217 N    0.934
  1543   1 H    1.010 --   219 C    0.962
  1544   1 H    0.947 --   228 N    0.938
  1545   1 H    1.011 --   230 C    0.963
  1546   1 H    0.960 --   242 N    0.944
  1547   1 H    0.959 --   264 N    0.943
  1548   1 H    0.960 --   286 N    0.944
  1549   1 H    1.003 --   310 C    0.956
  1550   1 H    1.000 --   326 C    0.955
  1551   1 H    0.997 --   342 C    0.954
  1552   1 H    0.950 --   356 N    0.933
  1553   1 H    1.012 --   358 C    0.964
  1554   1 H    0.970 --   372 N    0.952
  1555   1 H    1.000 --   438 C    0.956
  1556   1 H    0.950 --   452 N    0.942
  1557   1 H    1.008 --   554 C    0.960
  1558   1 H    1.003 --   561 C    0.956
  1559   1 H    0.951 --   575 N    0.943
  1560   1 H    1.007 --   661 C    0.960
  1561   1 H    1.010 --   693 C    0.961
  1562   1 H    0.951 --   707 N    0.935
  1563   1 H    0.946 --   791 N    0.940
  1564   1 H    1.004 --   811 C    0.960
  1565   1 H    0.949 --   823 N    0.942
  1566   1 H    0.951 --   891 N    0.937
  1567   1 H    1.012 --  1070 C    0.960
 ---------------------------------------------------------------------------


 dipole moment from electron density (au)
     X       Y       Z   
   6.3540 -23.5215 -30.9538  total (Debye):  100.126


           -------------------------------------------------
          | TOTAL ENERGY            -2798.573368776197 Eh   |
          | GRADIENT NORM               1.797337961298 Eh/α |
          | HOMO-LUMO GAP               0.365055131077 eV   |
           -------------------------------------------------

------------------------------------------------------------------------
 * finished run on 2022/06/09 at 01:02:29.970     
------------------------------------------------------------------------
 total:
 * wall-time:     0 d,  0 h,  6 min,  9.179 sec
 *  cpu-time:     0 d,  0 h,  6 min,  8.754 sec
 * ratio c/w:     0.999 speedup
 SCF:
 * wall-time:     0 d,  0 h,  5 min, 36.039 sec
 *  cpu-time:     0 d,  0 h,  5 min, 35.673 sec
 * ratio c/w:     0.999 speedup

