      -----------------------------------------------------------      
     |                   =====================                   |     
     |                           x T B                           |     
     |                   =====================                   |     
     |                         S. Grimme                         |     
     |          Mulliken Center for Theoretical Chemistry        |     
     |                    University of Bonn                     |     
      -----------------------------------------------------------      

   * xtb version 6.4.0 (d4b70c2) compiled by 'ehlert@majestix' on 2021-02-01

   xtb is free software: you can redistribute it and/or modify it under
   the terms of the GNU Lesser General Public License as published by
   the Free Software Foundation, either version 3 of the License, or
   (at your option) any later version.
   
   xtb is distributed in the hope that it will be useful,
   but WITHOUT ANY WARRANTY; without even the implied warranty of
   MERCHANTABILITY or FITNESS FOR A PARTICULAR PURPOSE.  See the
   GNU Lesser General Public License for more details.
   
   Cite this work as:
   * C. Bannwarth, E. Caldeweyher, S. Ehlert, A. Hansen, P. Pracht,
     J. Seibert, S. Spicher, S. Grimme, WIREs Comput. Mol. Sci., 2020,
     e01493. DOI: 10.1002/wcms.1493
   
   for GFN2-xTB:
   * C. Bannwarth, S. Ehlert and S. Grimme., J. Chem. Theory Comput., 2019,
     15, 1652-1671. DOI: 10.1021/acs.jctc.8b01176
   for GFN1-xTB:
   * S. Grimme, C. Bannwarth, P. Shushkov, J. Chem. Theory Comput., 2017,
     13, 1989-2009. DOI: 10.1021/acs.jctc.7b00118
   for GFN0-xTB:
   * P. Pracht, E. Caldeweyher, S. Ehlert, S. Grimme, ChemRxiv, 2019, preprint.
     DOI: 10.26434/chemrxiv.8326202.v1
   for GFN-FF:
   * S. Spicher and S. Grimme, Angew. Chem. Int. Ed., 2020, 59, 15665-15673.
     DOI: 10.1002/anie.202004239
   
   for DFT-D4:
   * E. Caldeweyher, C. Bannwarth and S. Grimme, J. Chem. Phys., 2017,
     147, 034112. DOI: 10.1063/1.4993215
   * E. Caldeweyher, S. Ehlert, A. Hansen, H. Neugebauer, S. Spicher,
     C. Bannwarth and S. Grimme, J. Chem. Phys., 2019, 150, 154122.
     DOI: 10.1063/1.5090222
   * E. Caldeweyher, J.-M. Mewes, S. Ehlert and S. Grimme, Phys. Chem. Chem. Phys.
     2020, 22, 8499-8512. DOI: 10.1039/D0CP00502A
   
   for sTDA-xTB:
   * S. Grimme and C. Bannwarth, J. Chem. Phys., 2016, 145, 054103.
     DOI: 10.1063/1.4959605
   
   in the mass-spec context:
   * V. Asgeirsson, C. Bauer and S. Grimme, Chem. Sci., 2017, 8, 4879.
     DOI: 10.1039/c7sc00601b
   * J. Koopman and S. Grimme, ACS Omega 2019, 4, 12, 15120-15133.
     DOI: 10.1021/acsomega.9b02011
   
   for metadynamics refer to:
   * S. Grimme, J. Chem. Theory Comput., 2019, 155, 2847-2862
     DOI: 10.1021/acs.jctc.9b00143
   
   with help from (in alphabetical order)
   P. Atkinson, C. Bannwarth, F. Bohle, G. Brandenburg, E. Caldeweyher
   M. Checinski, S. Dohm, S. Ehlert, S. Ehrlich, I. Gerasimov, J. Koopman
   C. Lavinge, S. Lehtola, F. März, M. Müller, F. Musil, H. Neugebauer
   J. Pisarek, P. Pracht, J. Seibert, P. Shushkov, S. Spicher, M. Stahn
   T. Strunk, J. Stückrath, T. Rose, and J. Unsleber
   
 * started run on 2022/05/30 at 00:09:57.986     

           -------------------------------------------------
          |                Calculation Setup                |
           -------------------------------------------------

          program call               : /home/amax/XTB/xtb-6.4.0/bin/xtb xtb_tmp.xyz --chrg -3 --grad --gfn 1 --gbsa h2o --parallel 1
          hostname                   : amax
          coordinate file            : xtb_tmp.xyz
          omp threads                :                     1
          number of atoms            :                   818
          number of electrons        :                  2338
          charge                     :                    -3
          spin                       :                   0.0
          first test random number   :      0.71264539033866

   ID    Z sym.   atoms
    1    7 N      1, 8, 17, 33, 40, 51, 58, 65, 79, 101, 112, 119, 126, 140,
                  168, 190, 227, 234, 243, 250, 259, 275, 282, 293, 300, 307,
                  321, 328, 337, 353, 360, 371, 378, 385, 399, 421, 428, 437,
                  453, 460, 469, 485, 492, 499, 521, 528, 535, 557, 568, 575,
                  582, 596, 618, 634, 641, 648, 662, 684, 700, 716, 723, 730,
                  737, 753, 760, 767, 774
    2    6 C      2, 3, 5, 6, 18, 19, 21-23, 34, 35, 41, 42, 44, 52, 53, 55,
                  56, 66, 67, 69, 71, 80, 81, 83-89, 102, 103, 105, 113, 114,
                  116, 117, 127, 128, 130, 132, 141, 142, 144-150, 169, 170,
                  172-178, 191, 192, 194-200, 228, 229, 231, 232, 244, 245,
                  247, 248, 260, 261, 263-265, 276, 277, 283, 284, 286, 294,
                  295, 297, 298, 308, 309, 311, 313, 322, 323, 325, 326, 338,
                  339, 341-343, 354, 355, 361, 362, 364, 372, 373, 375, 376,
                  386, 387, 389, 391, 400, 401, 403-409, 422, 423, 425, 426,
                  438, 439, 441-443, 454, 455, 457, 458, 470, 471, 473-475,
                  486, 487, 489, 490, 500, 501, 503-509, 522, 523, 525, 526,
                  536, 537, 539-545, 558, 559, 561, 569, 570, 572, 573, 583,
                  584, 586, 588, 597, 598, 600-606, 619, 620, 622-624, 635,
                  636, 638, 639, 649, 650, 652, 654, 663, 664, 666-672, 685,
                  686, 688-690, 701, 702, 704-706, 717, 718, 724, 725, 727,
                  728, 738, 739, 741-743, 754, 755, 761, 762, 764, 765, 775,
                  776, 778, 780
    3    8 O      4, 7, 20, 36, 43, 45, 54, 57, 68, 70, 82, 90, 91, 104, 106,
                  115, 118, 129, 131, 143, 151, 152, 162, 165, 171, 179, 180,
                  193, 201, 202, 212, 215, 218, 221, 224, 230, 233, 246, 249,
                  262, 278, 285, 287, 296, 299, 310, 312, 324, 327, 340, 356,
                  363, 365, 374, 377, 388, 390, 402, 410, 411, 424, 427, 440,
                  456, 459, 472, 488, 491, 502, 510, 511, 524, 527, 538, 546,
                  547, 560, 562, 571, 574, 585, 587, 599, 607, 608, 621, 637,
                  640, 651, 653, 665, 673, 674, 687, 703, 719, 726, 729, 740,
                  756, 763, 766, 777, 779
    4    1 H      9-16, 24-32, 37-39, 46-50, 59-64, 72-78, 92-100, 107-111,
                  120-125, 133-139, 153-161, 163, 164, 166, 167, 181-189,
                  203-211, 213, 214, 216, 217, 219, 220, 222, 223, 225, 226,
                  235-242, 251-258, 266-274, 279-281, 288-292, 301-306,
                  314-320, 329-336, 344-352, 357-359, 366-370, 379-384,
                  392-398, 412-420, 429-436, 444-452, 461-468, 476-484,
                  493-498, 512-520, 529-534, 548-556, 563-567, 576-581,
                  589-595, 609-617, 625-633, 642-647, 655-661, 675-683,
                  691-699, 707-715, 720-722, 731-736, 744-752, 757-759,
                  768-773, 781-818

molecular fragmentation (1/2 indicates fragments):
111111111111111111111111111111111111111111111111111111111111111111111111
111111111111111111111111111122222222222222222222222222222222222222222222
222222222222222222222222222222222222222222222222222222222222222222222222
222222222222222222222222222222222222222222222222222222222222222222222222
222222222222222222222222222222222222222222222222222222222222222222222222
222222222222222222222222222222222222222222222222222222222222222222222222
222222222222222222222222222222222222222222222222222222222222222222222222
222222222222222222222222222222222222222222222222222222222222222222222222
222222222222222222222222222222222222222222222222222222222222222222222222
222222222222222222222222222222222222222222222222222222222222222222222222
222222222222222222222222222222222222222222222222222222222222222222222222
22222222222222222222222222
# atoms in fragment 1/2:   100   718
 fragment masses (1/2) :      753.76     5174.45
CMA distance (Bohr)    :  10.330
constraining FC (au)   :  0.0500

           -------------------------------------------------
          |                 G F N 1 - x T B                 |
           -------------------------------------------------

        Reference                      10.1021/acs.jctc.7b00118
      * Hamiltonian:
        H0-scaling (s, p, d)           1.850000    2.250000    2.000000
        zeta-weighting                 0.000000
      * Dispersion:
        s8                             2.400000
        a1                             0.630000
        a2                             5.000000
        s9                             0.000000
      * Repulsion:
        kExp                           1.500000
        rExp                           1.000000
      * Coulomb:
        alpha                          2.000000
        third order                    atomic
        anisotropic                    false
      * Halogen bond correction:
        rad-scale                      1.300000
        damping                        0.440000

      * Solvation model:               GBSA
        Solvent                        h2o
        Parameter file                 internal GFN1-xTB/GBSA
        Dielectric constant                7.8500E+01
        Reference state                gsolv [1 M gas/solution]
        Free energy shift                  2.0755E-03 Eh       1.3024E+00 kcal/mol
        Temperature                        2.9815E+02 K
        Density                            9.9800E-01 kg/L
        Solvent mass                       1.8000E+01 g/mol
        Interaction kernel             Still
        Born radius scaling (c1)           1.5808E+00
        Born radii integrator          GBOBC
        Born offset                        1.3596E-02 a0       2.5692E-02 AA
        H-bond correction              true
        Ion screening                  false
        Surface tension                    1.0000E-05 Eh       1.5569E+01 dyn/cm
        Grid points                               230 per atom

          ...................................................
          :                      SETUP                      :
          :.................................................:
          :  # basis functions                2464          :
          :  # atomic orbitals                2464          :
          :  # shells                         1636          :
          :  # electrons                      2338          :
          :  # halogen bonds                     0          :
          :  max. iterations                   250          :
          :  Hamiltonian                  GFN1-xTB          :
          :  restarted?                      false          :
          :  GBSA solvation                   true          :
          :  PC potential                    false          :
          :  electronic temp.          300.0000000     K    :
          :  accuracy                    1.0000000          :
          :  -> integral cutoff          0.2500000E+02      :
          :  -> integral neglect         0.1000000E-07      :
          :  -> SCF convergence          0.1000000E-05 Eh   :
          :  -> wf. convergence          0.2000000E-04 e    :
          :  Broyden damping             0.4000000          :
          ...................................................

 iter      E             dE          RMSdq      gap      omega  full diag
   1  -1446.5514573 -0.144655E+04  0.819E+00    2.44       0.0  T
   2  -1452.2086395 -0.565718E+01  0.485E+00    2.02       1.0  T
   3  -1452.1870567  0.215828E-01  0.137E+00    1.04       1.0  T
   4  -1452.3690985 -0.182042E+00  0.147E-01    0.55       1.0  T
   5  -1452.3800171 -0.109187E-01  0.333E-02    0.72       1.0  T
   6  -1452.3805721 -0.554948E-03  0.779E-03    0.76       1.0  T
   7  -1452.3805990 -0.269086E-04  0.287E-03    0.77       1.2  T
   8  -1452.3806011 -0.211260E-05  0.842E-04    0.78       4.2  T
   9  -1452.3806012 -0.141141E-06  0.247E-04    0.78      14.2  T
  10  -1452.3806013 -0.954765E-08  0.553E-05    0.78      63.2  T
  11  -1452.3806013 -0.534101E-09  0.203E-05    0.78     172.3  T

   *** convergence criteria satisfied after 11 iterations ***

         #    Occupation            Energy/Eh            Energy/eV
      -------------------------------------------------------------
         1        2.0000           -0.8619801             -23.4557
       ...           ...                  ...                  ...
      1163        2.0000           -0.3879234             -10.5559
      1164        2.0000           -0.3860469             -10.5049
      1165        2.0000           -0.3843749             -10.4594
      1166        2.0000           -0.3824647             -10.4074
      1167        2.0000           -0.3811402             -10.3714
      1168        2.0000           -0.3695622             -10.0563
      1169        2.0000           -0.3669260              -9.9846 (HOMO)
      1170        0.0000           -0.3381988              -9.2029 (LUMO)
      1171                         -0.3247199              -8.8361
      1172                         -0.3229739              -8.7886
      1173                         -0.3187272              -8.6730
      1174                         -0.3174211              -8.6375
       ...                                ...                  ...
      2464                          0.9422616              25.6402
      -------------------------------------------------------------
                  HL-Gap            0.0287272 Eh            0.7817 eV
             Fermi-level           -0.3525337 Eh           -9.5929 eV

 SCC (total)                   0 d,  0 h,  0 min, 52.062 sec
 SCC setup                      ...        0 min,  0.136 sec (  0.261%)
 Dispersion                     ...        0 min,  0.061 sec (  0.117%)
 classical contributions        ...        0 min,  0.019 sec (  0.037%)
 integral evaluation            ...        0 min, 10.526 sec ( 20.219%)
 iterations                     ...        0 min, 34.179 sec ( 65.651%)
 molecular gradient             ...        0 min,  6.772 sec ( 13.008%)
 printout                       ...        0 min,  0.368 sec (  0.707%)

         :::::::::::::::::::::::::::::::::::::::::::::::::::::
         ::                     SUMMARY                     ::
         :::::::::::::::::::::::::::::::::::::::::::::::::::::
         :: total energy           -1437.458339261227 Eh    ::
         :: total w/o Gsasa/hb     -1437.429281373493 Eh    ::
         :: gradient norm              1.325621793261 Eh/a0 ::
         :: HOMO-LUMO gap              0.781706725315 eV    ::
         ::.................................................::
         :: SCC energy             -1452.380601254085 Eh    ::
         :: -> electrostatic           8.058461191423 Eh    ::
         :: -> Gsolv                  -1.363829642863 Eh    ::
         ::    -> Gborn               -1.334771755130 Eh    ::
         ::    -> Gsasa                0.103141032402 Eh    ::
         ::    -> Ghb                 -0.134274390775 Eh    ::
         ::    -> Gshift               0.002075470640 Eh    ::
         :: repulsion energy          15.867528381500 Eh    ::
         :: dispersion energy         -0.945266388642 Eh    ::
         :: halogen bond corr.         0.000000000000 Eh    ::
         :: add. restraining           0.000000000000 Eh    ::
         :: total charge              -2.999999999987 e     ::
         :::::::::::::::::::::::::::::::::::::::::::::::::::::

           -------------------------------------------------
          |                Property Printout                |
           -------------------------------------------------

    * Orbital Energies and Occupations

         #    Occupation            Energy/Eh            Energy/eV
      -------------------------------------------------------------
         1        2.0000           -0.8619801             -23.4557
       ...           ...                  ...                  ...
      1157        2.0000           -0.3945236             -10.7355
      1158        2.0000           -0.3940333             -10.7222
      1159        2.0000           -0.3938970             -10.7185
      1160        2.0000           -0.3914671             -10.6524
      1161        2.0000           -0.3905362             -10.6270
      1162        2.0000           -0.3893745             -10.5954
      1163        2.0000           -0.3879234             -10.5559
      1164        2.0000           -0.3860469             -10.5049
      1165        2.0000           -0.3843749             -10.4594
      1166        2.0000           -0.3824647             -10.4074
      1167        2.0000           -0.3811402             -10.3714
      1168        2.0000           -0.3695622             -10.0563
      1169        2.0000           -0.3669260              -9.9846 (HOMO)
      1170        0.0000           -0.3381988              -9.2029 (LUMO)
      1171                         -0.3247199              -8.8361
      1172                         -0.3229739              -8.7886
      1173                         -0.3187272              -8.6730
      1174                         -0.3174211              -8.6375
      1175                         -0.3165303              -8.6132
      1176                         -0.3113114              -8.4712
      1177                         -0.3096705              -8.4266
      1178                         -0.3086824              -8.3997
      1179                         -0.3076244              -8.3709
      1180                         -0.3066971              -8.3457
       ...                                ...                  ...
      2464                          0.9422616              25.6402
      -------------------------------------------------------------
                  HL-Gap            0.0287272 Eh            0.7817 eV
             Fermi-level           -0.3525337 Eh           -9.5929 eV

  Mulliken/CM5 charges         n(s)   n(p)   n(d)
     1N    -0.19768 -0.80261   1.457  3.740  0.000
     2C     0.08049  0.07524   1.044  2.875  0.000
     3C     0.47720  0.57891   0.984  2.538  0.000
     4O    -0.59452 -0.67464   1.725  4.869  0.000
     5C    -0.08980 -0.18017   1.048  3.042  0.000
     6C     0.47917  0.57152   0.991  2.530  0.000
     7O    -0.64327 -0.71540   1.734  4.910  0.000
     8N    -0.40496 -0.86820   1.433  3.972  0.000
     9H     0.27595  0.47481   0.724  0.000  0.000
    10H     0.27487  0.46947   0.725  0.000  0.000
    11H     0.27763  0.48039   0.722  0.000  0.000
    12H     0.07837  0.16699   0.922  0.000  0.000
    13H     0.07822  0.14729   0.922  0.000  0.000
    14H     0.07722  0.14230   0.923  0.000  0.000
    15H     0.28338  0.50331   0.717  0.000  0.000
    16H     0.26202  0.46272   0.738  0.000  0.000
    17N    -0.30959 -0.67930   1.427  3.883  0.000
    18C     0.08799  0.09309   1.042  2.870  0.000
    19C     0.46624  0.57119   0.996  2.538  0.000
    20O    -0.61411 -0.67468   1.733  4.881  0.000
    21C    -0.00140 -0.07036   1.056  2.945  0.000
    22C    -0.08576 -0.23646   1.014  3.072  0.000
    23C    -0.07911 -0.22919   1.015  3.065  0.000
    24H     0.25839  0.46357   0.742  0.000  0.000
    25H     0.06213  0.14971   0.938  0.000  0.000
    26H     0.02737  0.09185   0.973  0.000  0.000
    27H     0.03863  0.09209   0.961  0.000  0.000
    28H     0.02975  0.08684   0.970  0.000  0.000
    29H     0.03476  0.09036   0.965  0.000  0.000
    30H     0.02946  0.08368   0.971  0.000  0.000
    31H     0.03493  0.09352   0.965  0.000  0.000
    32H     0.03642  0.09827   0.964  0.000  0.000
    33N    -0.31733 -0.68596   1.427  3.891  0.000
    34C     0.06170  0.02526   1.017  2.921  0.000
    35C     0.47415  0.57383   0.996  2.530  0.000
    36O    -0.59203 -0.67425   1.727  4.865  0.000
    37H     0.26404  0.46809   0.736  0.000  0.000
    38H     0.08893  0.17343   0.911  0.000  0.000
    39H     0.06326  0.13963   0.937  0.000  0.000
    40N    -0.32260 -0.67473   1.428  3.894  0.000
    41C     0.08701  0.09084   1.043  2.870  0.000
    42C     0.46710  0.57201   0.992  2.541  0.000
    43O    -0.59820 -0.66484   1.730  4.868  0.000
    44C     0.19882  0.11876   0.996  2.805  0.000
    45O    -0.59734 -0.81722   1.703  4.894  0.000
    46H     0.25260  0.45438   0.747  0.000  0.000
    47H     0.05773  0.14144   0.942  0.000  0.000
    48H     0.04129  0.11327   0.959  0.000  0.000
    49H     0.04568  0.11659   0.954  0.000  0.000
    50H     0.35955  0.53220   0.640  0.000  0.000
    51N    -0.32129 -0.68094   1.428  3.893  0.000
    52C     0.11067  0.11555   1.035  2.854  0.000
    53C     0.47154  0.57591   0.991  2.537  0.000
    54O    -0.60864 -0.67051   1.729  4.880  0.000
    55C    -0.09149 -0.18109   1.048  3.043  0.000
    56C     0.48731  0.58190   0.989  2.524  0.000
    57O    -0.60622 -0.68049   1.722  4.884  0.000
    58N    -0.38867 -0.84806   1.424  3.964  0.000
    59H     0.26192  0.47675   0.738  0.000  0.000
    60H     0.06521  0.15015   0.935  0.000  0.000
    61H     0.05971  0.13303   0.940  0.000  0.000
    62H     0.05737  0.12227   0.943  0.000  0.000
    63H     0.26264  0.46413   0.737  0.000  0.000
    64H     0.25131  0.45158   0.749  0.000  0.000
    65N    -0.32075 -0.68259   1.431  3.890  0.000
    66C     0.07807  0.08537   1.041  2.881  0.000
    67C     0.47047  0.57615   0.988  2.541  0.000
    68O    -0.60670 -0.67641   1.728  4.879  0.000
    69C     0.22329  0.18059   1.019  2.758  0.000
    70O    -0.58970 -0.80244   1.707  4.883  0.000
    71C    -0.10511 -0.25259   1.020  3.085  0.000
    72H     0.26214  0.47091   0.738  0.000  0.000
    73H     0.06126  0.15160   0.939  0.000  0.000
    74H     0.02236  0.09322   0.978  0.000  0.000
    75H     0.35840  0.52559   0.642  0.000  0.000
    76H     0.03578  0.09274   0.964  0.000  0.000
    77H     0.03734  0.09579   0.963  0.000  0.000
    78H     0.04453  0.10986   0.955  0.000  0.000
    79N    -0.31863 -0.67574   1.431  3.888  0.000
    80C     0.07753  0.07723   1.050  2.873  0.000
    81C     0.56749  0.63315   0.960  2.473  0.000
    82O    -0.71937 -0.75801   1.741  4.979  0.000
    83C    -0.05316 -0.14959   1.037  3.016  0.000
    84C    -0.00985 -0.02443   1.084  2.925  0.000
    85C    -0.04090 -0.09422   1.064  2.977  0.000
    86C    -0.03422 -0.08845   1.061  2.973  0.000
    87C    -0.07670 -0.12920   1.057  3.020  0.000
    88C    -0.09092 -0.14377   1.063  3.028  0.000
    89C     0.25156  0.26143   1.019  2.730  0.000
    90O    -0.54523 -0.75122   1.704  4.841  0.000
    91O    -0.72902 -0.77159   1.748  4.981  0.000
    92H     0.24986  0.45394   0.750  0.000  0.000
    93H     0.03816  0.11922   0.962  0.000  0.000
    94H     0.03763  0.09835   0.962  0.000  0.000
    95H     0.04346  0.10254   0.957  0.000  0.000
    96H     0.03471  0.09831   0.965  0.000  0.000
    97H     0.03509  0.09296   0.965  0.000  0.000
    98H     0.04447  0.10625   0.956  0.000  0.000
    99H     0.04674  0.10588   0.953  0.000  0.000
   100H     0.38150  0.55027   0.619  0.000  0.000
   101N    -0.54002 -1.04429   1.442  4.099  0.000
   102C     0.08145  0.07998   1.039  2.880  0.000
   103C     0.46526  0.56955   0.997  2.538  0.000
   104O    -0.61697 -0.68527   1.729  4.888  0.000
   105C     0.20062  0.12124   0.989  2.810  0.000
   106O    -0.60643 -0.81811   1.700  4.906  0.000
   107H     0.21605  0.40272   0.784  0.000  0.000
   108H     0.04041  0.11662   0.960  0.000  0.000
   109H     0.02445  0.09444   0.976  0.000  0.000
   110H     0.01862  0.08808   0.981  0.000  0.000
   111H     0.37152  0.53678   0.628  0.000  0.000
   112N    -0.33302 -0.69116   1.430  3.903  0.000
   113C     0.11183  0.11644   1.036  2.852  0.000
   114C     0.46769  0.57212   0.991  2.541  0.000
   115O    -0.60670 -0.66917   1.726  4.881  0.000
   116C    -0.08529 -0.17471   1.047  3.038  0.000
   117C     0.48626  0.57882   0.995  2.519  0.000
   118O    -0.60189 -0.67719   1.727  4.875  0.000
   119N    -0.40105 -0.85382   1.425  3.976  0.000
   120H     0.25973  0.47386   0.740  0.000  0.000
   121H     0.06149  0.14702   0.939  0.000  0.000
   122H     0.05759  0.13125   0.942  0.000  0.000
   123H     0.05681  0.12161   0.943  0.000  0.000
   124H     0.26349  0.45220   0.737  0.000  0.000
   125H     0.25528  0.45172   0.745  0.000  0.000
   126N    -0.31793 -0.67827   1.428  3.889  0.000
   127C     0.08562  0.09273   1.041  2.874  0.000
   128C     0.47163  0.57674   0.988  2.541  0.000
   129O    -0.60770 -0.67669   1.727  4.881  0.000
   130C     0.22673  0.18370   1.022  2.751  0.000
   131O    -0.59946 -0.81316   1.711  4.889  0.000
   132C    -0.09375 -0.24097   1.017  3.077  0.000
   133H     0.25501  0.46203   0.745  0.000  0.000
   134H     0.05711  0.14518   0.943  0.000  0.000
   135H     0.03102  0.10418   0.969  0.000  0.000
   136H     0.36299  0.54917   0.637  0.000  0.000
   137H     0.04109  0.10036   0.959  0.000  0.000
   138H     0.03763  0.09606   0.962  0.000  0.000
   139H     0.02268  0.08232   0.977  0.000  0.000
   140N    -0.32871 -0.68692   1.435  3.894  0.000
   141C     0.09426  0.09348   1.044  2.861  0.000
   142C     0.57777  0.64037   0.961  2.461  0.000
   143O    -0.67752 -0.75604   1.736  4.942  0.000
   144C    -0.03721 -0.13442   1.032  3.005  0.000
   145C    -0.00761 -0.02285   1.081  2.926  0.000
   146C    -0.03432 -0.08823   1.060  2.974  0.000
   147C    -0.03098 -0.08620   1.060  2.971  0.000
   148C    -0.08099 -0.13430   1.056  3.025  0.000
   149C    -0.09003 -0.14399   1.060  3.030  0.000
   150C     0.24810  0.25728   1.021  2.731  0.000
   151O    -0.55652 -0.76670   1.705  4.851  0.000
   152O    -0.68035 -0.74766   1.738  4.943  0.000
   153H     0.25840  0.47109   0.742  0.000  0.000
   154H     0.04090  0.12175   0.959  0.000  0.000
   155H     0.03136  0.09525   0.969  0.000  0.000
   156H     0.03971  0.10239   0.960  0.000  0.000
   157H     0.02814  0.09312   0.972  0.000  0.000
   158H     0.03016  0.08863   0.970  0.000  0.000
   159H     0.03820  0.10143   0.962  0.000  0.000
   160H     0.03771  0.10208   0.962  0.000  0.000
   161H     0.37717  0.56863   0.623  0.000  0.000
   162O    -0.71473 -1.19208   1.655  5.060  0.000
   163H     0.36889  0.60211   0.631  0.000  0.000
   164H     0.36967  0.60880   0.630  0.000  0.000
   165O    -0.72175 -1.18750   1.649  5.072  0.000
   166H     0.35497  0.59025   0.645  0.000  0.000
   167H     0.36041  0.60400   0.640  0.000  0.000
   168N    -0.54019 -1.04509   1.441  4.099  0.000
   169C     0.08813  0.08129   1.044  2.868  0.000
   170C     0.57179  0.63435   0.965  2.463  0.000
   171O    -0.70566 -0.77519   1.740  4.966  0.000
   172C    -0.04842 -0.14631   1.033  3.015  0.000
   173C    -0.00699 -0.02298   1.084  2.923  0.000
   174C    -0.04171 -0.09613   1.060  2.981  0.000
   175C    -0.02979 -0.08495   1.060  2.970  0.000
   176C    -0.08222 -0.13345   1.053  3.029  0.000
   177C    -0.08935 -0.14234   1.059  3.030  0.000
   178C     0.24713  0.25833   1.018  2.735  0.000
   179O    -0.56234 -0.75582   1.704  4.858  0.000
   180O    -0.68681 -0.75408   1.738  4.948  0.000
   181H     0.19980  0.38695   0.800  0.000  0.000
   182H     0.02037  0.09485   0.980  0.000  0.000
   183H     0.02590  0.08722   0.974  0.000  0.000
   184H     0.03617  0.09874   0.964  0.000  0.000
   185H     0.03224  0.09131   0.968  0.000  0.000
   186H     0.03252  0.09091   0.967  0.000  0.000
   187H     0.03844  0.09752   0.962  0.000  0.000
   188H     0.03885  0.10020   0.961  0.000  0.000
   189H     0.37899  0.54626   0.621  0.000  0.000
   190N    -0.54128 -1.04591   1.442  4.100  0.000
   191C     0.08332  0.07685   1.043  2.873  0.000
   192C     0.57315  0.63572   0.965  2.462  0.000
   193O    -0.69702 -0.76669   1.739  4.958  0.000
   194C    -0.04510 -0.14335   1.034  3.011  0.000
   195C    -0.00723 -0.02326   1.084  2.923  0.000
   196C    -0.03719 -0.09183   1.060  2.978  0.000
   197C    -0.03566 -0.09043   1.061  2.975  0.000
   198C    -0.07956 -0.13094   1.053  3.027  0.000
   199C    -0.09798 -0.15077   1.061  3.037  0.000
   200C     0.24875  0.25999   1.018  2.733  0.000
   201O    -0.56398 -0.75724   1.705  4.859  0.000
   202O    -0.69937 -0.76523   1.740  4.959  0.000
   203H     0.19850  0.38587   0.802  0.000  0.000
   204H     0.01883  0.09225   0.981  0.000  0.000
   205H     0.02897  0.09134   0.971  0.000  0.000
   206H     0.03899  0.10153   0.961  0.000  0.000
   207H     0.02911  0.08875   0.971  0.000  0.000
   208H     0.03659  0.09437   0.963  0.000  0.000
   209H     0.03726  0.09678   0.963  0.000  0.000
   210H     0.04580  0.10475   0.954  0.000  0.000
   211H     0.38403  0.55109   0.616  0.000  0.000
   212O    -0.71721 -1.19449   1.656  5.062  0.000
   213H     0.37025  0.60345   0.630  0.000  0.000
   214H     0.37118  0.61026   0.629  0.000  0.000
   215O    -0.71504 -1.19140   1.655  5.060  0.000
   216H     0.36682  0.59983   0.633  0.000  0.000
   217H     0.37072  0.60731   0.629  0.000  0.000
   218O    -0.73568 -1.20100   1.654  5.082  0.000
   219H     0.36286  0.59791   0.637  0.000  0.000
   220H     0.36400  0.60675   0.636  0.000  0.000
   221O    -0.72182 -1.18758   1.649  5.073  0.000
   222H     0.35390  0.58917   0.646  0.000  0.000
   223H     0.36030  0.60389   0.640  0.000  0.000
   224O    -0.72871 -1.18916   1.649  5.080  0.000
   225H     0.35626  0.59155   0.644  0.000  0.000
   226H     0.36124  0.60377   0.639  0.000  0.000
   227N    -0.19577 -0.80045   1.458  3.738  0.000
   228C     0.08659  0.07418   1.043  2.871  0.000
   229C     0.39965  0.37075   1.056  2.544  0.000
   230O    -0.49130 -0.58216   1.736  4.756  0.000
   231C    -0.09351 -0.18461   1.050  3.044  0.000
   232C     0.48281  0.57570   0.990  2.527  0.000
   233O    -0.61373 -0.67478   1.734  4.880  0.000
   234N    -0.39391 -0.84824   1.424  3.970  0.000
   235H     0.28507  0.48353   0.715  0.000  0.000
   236H     0.27849  0.47278   0.722  0.000  0.000
   237H     0.28362  0.48629   0.716  0.000  0.000
   238H     0.09150  0.16607   0.909  0.000  0.000
   239H     0.08749  0.15506   0.913  0.000  0.000
   240H     0.09275  0.15380   0.907  0.000  0.000
   241H     0.27701  0.46575   0.723  0.000  0.000
   242H     0.27784  0.46397   0.722  0.000  0.000
   243N    -0.20320 -0.80524   1.459  3.744  0.000
   244C     0.07385  0.06858   1.046  2.880  0.000
   245C     0.46963  0.57145   0.984  2.546  0.000
   246O    -0.58594 -0.66595   1.724  4.862  0.000
   247C    -0.09131 -0.18167   1.048  3.043  0.000
   248C     0.48016  0.57357   0.988  2.532  0.000
   249O    -0.63299 -0.67788   1.740  4.893  0.000
   250N    -0.40186 -0.85666   1.425  3.977  0.000
   251H     0.28305  0.46452   0.717  0.000  0.000
   252H     0.28719  0.47810   0.713  0.000  0.000
   253H     0.29714  0.49927   0.703  0.000  0.000
   254H     0.08199  0.16019   0.918  0.000  0.000
   255H     0.08376  0.15277   0.916  0.000  0.000
   256H     0.07942  0.14374   0.921  0.000  0.000
   257H     0.27204  0.45985   0.728  0.000  0.000
   258H     0.26485  0.46436   0.735  0.000  0.000
   259N    -0.31173 -0.67703   1.427  3.885  0.000
   260C     0.08508  0.09037   1.042  2.872  0.000
   261C     0.46162  0.56715   0.994  2.544  0.000
   262O    -0.62931 -0.67168   1.740  4.889  0.000
   263C    -0.00559 -0.07350   1.056  2.950  0.000
   264C    -0.08585 -0.23582   1.013  3.073  0.000
   265C    -0.08551 -0.23449   1.014  3.071  0.000
   266H     0.26278  0.45691   0.737  0.000  0.000
   267H     0.06507  0.15264   0.935  0.000  0.000
   268H     0.03125  0.09476   0.969  0.000  0.000
   269H     0.04004  0.09278   0.960  0.000  0.000
   270H     0.02983  0.08673   0.970  0.000  0.000
   271H     0.03786  0.09345   0.962  0.000  0.000
   272H     0.03459  0.08760   0.965  0.000  0.000
   273H     0.03890  0.09741   0.961  0.000  0.000
   274H     0.03063  0.09003   0.969  0.000  0.000
   275N    -0.32252 -0.69048   1.427  3.896  0.000
   276C     0.06337  0.02779   1.015  2.922  0.000
   277C     0.47301  0.57420   0.994  2.533  0.000
   278O    -0.61761 -0.66532   1.737  4.881  0.000
   279H     0.26194  0.46599   0.738  0.000  0.000
   280H     0.08525  0.16972   0.915  0.000  0.000
   281H     0.05937  0.13485   0.941  0.000  0.000
   282N    -0.32878 -0.67948   1.427  3.902  0.000
   283C     0.08387  0.08778   1.043  2.873  0.000
   284C     0.46766  0.57260   0.993  2.539  0.000
   285O    -0.59197 -0.65856   1.730  4.862  0.000
   286C     0.19689  0.11741   0.995  2.808  0.000
   287O    -0.60629 -0.81573   1.704  4.902  0.000
   288H     0.24778  0.44950   0.752  0.000  0.000
   289H     0.06539  0.14637   0.935  0.000  0.000
   290H     0.03909  0.11081   0.961  0.000  0.000
   291H     0.03983  0.10793   0.960  0.000  0.000
   292H     0.37301  0.53843   0.627  0.000  0.000
   293N    -0.31481 -0.67245   1.424  3.891  0.000
   294C     0.10635  0.11122   1.037  2.857  0.000
   295C     0.46935  0.57414   0.990  2.540  0.000
   296O    -0.61464 -0.65806   1.736  4.879  0.000
   297C    -0.10109 -0.19069   1.050  3.051  0.000
   298C     0.48641  0.58089   0.989  2.525  0.000
   299O    -0.59384 -0.66806   1.721  4.873  0.000
   300N    -0.39781 -0.85467   1.425  3.973  0.000
   301H     0.25270  0.45122   0.747  0.000  0.000
   302H     0.07354  0.15844   0.926  0.000  0.000
   303H     0.06200  0.12736   0.938  0.000  0.000
   304H     0.07468  0.13838   0.925  0.000  0.000
   305H     0.27048  0.47095   0.730  0.000  0.000
   306H     0.25644  0.44504   0.744  0.000  0.000
   307N    -0.32358 -0.68528   1.430  3.894  0.000
   308C     0.08527  0.08571   1.040  2.875  0.000
   309C     0.39600  0.37055   1.058  2.546  0.000
   310O    -0.49858 -0.58056   1.738  4.761  0.000
   311C     0.22944  0.18736   1.020  2.750  0.000
   312O    -0.60905 -0.81258   1.709  4.900  0.000
   313C    -0.11083 -0.25791   1.021  3.090  0.000
   314H     0.26710  0.47561   0.733  0.000  0.000
   315H     0.07033  0.14728   0.930  0.000  0.000
   316H     0.03516  0.10526   0.965  0.000  0.000
   317H     0.38004  0.54592   0.620  0.000  0.000
   318H     0.04653  0.10204   0.953  0.000  0.000
   319H     0.04138  0.09976   0.959  0.000  0.000
   320H     0.04626  0.11102   0.954  0.000  0.000
   321N    -0.20903 -0.81174   1.460  3.749  0.000
   322C     0.07753  0.07229   1.046  2.877  0.000
   323C     0.47181  0.57452   0.985  2.544  0.000
   324O    -0.60875 -0.65871   1.732  4.877  0.000
   325C    -0.09330 -0.18377   1.049  3.045  0.000
   326C     0.47828  0.57062   0.991  2.531  0.000
   327O    -0.63835 -0.71050   1.733  4.905  0.000
   328N    -0.40493 -0.86810   1.433  3.972  0.000
   329H     0.28552  0.48410   0.714  0.000  0.000
   330H     0.27997  0.46895   0.720  0.000  0.000
   331H     0.27762  0.47466   0.722  0.000  0.000
   332H     0.08652  0.17515   0.913  0.000  0.000
   333H     0.07775  0.14366   0.922  0.000  0.000
   334H     0.08139  0.14641   0.919  0.000  0.000
   335H     0.28408  0.50402   0.716  0.000  0.000
   336H     0.26109  0.46172   0.739  0.000  0.000
   337N    -0.31308 -0.68198   1.426  3.888  0.000
   338C     0.08705  0.09219   1.041  2.872  0.000
   339C     0.46777  0.57262   0.996  2.536  0.000
   340O    -0.59957 -0.66013   1.732  4.868  0.000
   341C    -0.00292 -0.07169   1.057  2.946  0.000
   342C    -0.09848 -0.24822   1.015  3.084  0.000
   343C    -0.08720 -0.23617   1.014  3.074  0.000
   344H     0.26182  0.46698   0.738  0.000  0.000
   345H     0.05794  0.13982   0.942  0.000  0.000
   346H     0.03573  0.10019   0.964  0.000  0.000
   347H     0.04434  0.09739   0.956  0.000  0.000
   348H     0.03732  0.09340   0.963  0.000  0.000
   349H     0.03494  0.08846   0.965  0.000  0.000
   350H     0.03553  0.08914   0.964  0.000  0.000
   351H     0.03430  0.08874   0.966  0.000  0.000
   352H     0.04060  0.10100   0.959  0.000  0.000
   353N    -0.32248 -0.68987   1.425  3.898  0.000
   354C     0.06253  0.02579   1.016  2.921  0.000
   355C     0.47415  0.57379   0.994  2.532  0.000
   356O    -0.58588 -0.66806   1.727  4.859  0.000
   357H     0.26625  0.45825   0.734  0.000  0.000
   358H     0.07704  0.14698   0.923  0.000  0.000
   359H     0.07725  0.15052   0.923  0.000  0.000
   360N    -0.31920 -0.67134   1.429  3.890  0.000
   361C     0.08730  0.09113   1.043  2.869  0.000
   362C     0.46725  0.57215   0.993  2.540  0.000
   363O    -0.59728 -0.66393   1.730  4.867  0.000
   364C     0.19949  0.11943   0.996  2.805  0.000
   365O    -0.59603 -0.81591   1.703  4.893  0.000
   366H     0.25740  0.45912   0.743  0.000  0.000
   367H     0.06117  0.14489   0.939  0.000  0.000
   368H     0.04249  0.11447   0.958  0.000  0.000
   369H     0.04641  0.11732   0.954  0.000  0.000
   370H     0.36151  0.53416   0.638  0.000  0.000
   371N    -0.32018 -0.67974   1.427  3.893  0.000
   372C     0.10753  0.11221   1.035  2.858  0.000
   373C     0.47198  0.57626   0.991  2.537  0.000
   374O    -0.59802 -0.65989   1.728  4.870  0.000
   375C    -0.09448 -0.18380   1.048  3.046  0.000
   376C     0.48325  0.57867   0.988  2.529  0.000
   377O    -0.63077 -0.67527   1.734  4.897  0.000
   378N    -0.39612 -0.85252   1.423  3.973  0.000
   379H     0.26457  0.47938   0.735  0.000  0.000
   380H     0.06000  0.13935   0.940  0.000  0.000
   381H     0.06341  0.13669   0.937  0.000  0.000
   382H     0.05753  0.12124   0.942  0.000  0.000
   383H     0.26017  0.44981   0.740  0.000  0.000
   384H     0.25618  0.45624   0.744  0.000  0.000
   385N    -0.32334 -0.68378   1.429  3.895  0.000
   386C     0.07590  0.08328   1.042  2.882  0.000
   387C     0.46544  0.57176   0.988  2.547  0.000
   388O    -0.63241 -0.67986   1.737  4.896  0.000
   389C     0.22785  0.18549   1.016  2.756  0.000
   390O    -0.60865 -0.81920   1.710  4.898  0.000
   391C    -0.10552 -0.25181   1.017  3.089  0.000
   392H     0.25508  0.45146   0.745  0.000  0.000
   393H     0.06497  0.15535   0.935  0.000  0.000
   394H     0.01991  0.09118   0.980  0.000  0.000
   395H     0.36523  0.55480   0.635  0.000  0.000
   396H     0.03864  0.09439   0.961  0.000  0.000
   397H     0.03209  0.08874   0.968  0.000  0.000
   398H     0.03336  0.09159   0.967  0.000  0.000
   399N    -0.32134 -0.67815   1.431  3.891  0.000
   400C     0.07865  0.07900   1.047  2.874  0.000
   401C     0.56816  0.63416   0.960  2.472  0.000
   402O    -0.72206 -0.76056   1.741  4.981  0.000
   403C    -0.04543 -0.14217   1.037  3.009  0.000
   404C    -0.01049 -0.02518   1.085  2.926  0.000
   405C    -0.03723 -0.09090   1.063  2.974  0.000
   406C    -0.03720 -0.09120   1.061  2.976  0.000
   407C    -0.07612 -0.12879   1.057  3.019  0.000
   408C    -0.09497 -0.14765   1.063  3.032  0.000
   409C     0.24984  0.25975   1.019  2.731  0.000
   410O    -0.54731 -0.75264   1.705  4.842  0.000
   411O    -0.73957 -0.78029   1.749  4.990  0.000
   412H     0.24809  0.45258   0.752  0.000  0.000
   413H     0.03400  0.11396   0.966  0.000  0.000
   414H     0.03626  0.09961   0.964  0.000  0.000
   415H     0.03942  0.09865   0.961  0.000  0.000
   416H     0.03081  0.09522   0.969  0.000  0.000
   417H     0.03519  0.09274   0.965  0.000  0.000
   418H     0.04240  0.10461   0.958  0.000  0.000
   419H     0.04847  0.10718   0.952  0.000  0.000
   420H     0.38462  0.55272   0.615  0.000  0.000
   421N    -0.20810 -0.80749   1.461  3.747  0.000
   422C     0.07594  0.07067   1.046  2.878  0.000
   423C     0.47238  0.57501   0.984  2.543  0.000
   424O    -0.60597 -0.65578   1.731  4.875  0.000
   425C    -0.10314 -0.19332   1.051  3.053  0.000
   426C     0.47588  0.56828   0.992  2.532  0.000
   427O    -0.62591 -0.69791   1.733  4.893  0.000
   428N    -0.41081 -0.86803   1.432  3.979  0.000
   429H     0.29842  0.49264   0.702  0.000  0.000
   430H     0.29184  0.47978   0.708  0.000  0.000
   431H     0.28031  0.46151   0.720  0.000  0.000
   432H     0.09436  0.18291   0.906  0.000  0.000
   433H     0.07931  0.14375   0.921  0.000  0.000
   434H     0.08788  0.15163   0.912  0.000  0.000
   435H     0.29203  0.51060   0.708  0.000  0.000
   436H     0.26226  0.44882   0.738  0.000  0.000
   437N    -0.31003 -0.67931   1.426  3.884  0.000
   438C     0.08979  0.08771   1.040  2.871  0.000
   439C     0.38482  0.35765   1.063  2.552  0.000
   440O    -0.51202 -0.57612   1.745  4.767  0.000
   441C    -0.00172 -0.07098   1.058  2.943  0.000
   442C    -0.10159 -0.25164   1.016  3.085  0.000
   443C    -0.08801 -0.23700   1.014  3.074  0.000
   444H     0.26471  0.46962   0.735  0.000  0.000
   445H     0.06281  0.13949   0.937  0.000  0.000
   446H     0.03757  0.10188   0.962  0.000  0.000
   447H     0.04765  0.10064   0.952  0.000  0.000
   448H     0.03955  0.09418   0.960  0.000  0.000
   449H     0.03840  0.09158   0.962  0.000  0.000
   450H     0.03941  0.09301   0.961  0.000  0.000
   451H     0.03643  0.09085   0.964  0.000  0.000
   452H     0.04260  0.10299   0.957  0.000  0.000
   453N    -0.19742 -0.80234   1.458  3.740  0.000
   454C     0.08058  0.07534   1.044  2.875  0.000
   455C     0.47682  0.57847   0.985  2.538  0.000
   456O    -0.59390 -0.67389   1.725  4.869  0.000
   457C    -0.09605 -0.18609   1.048  3.048  0.000
   458C     0.47976  0.57227   0.991  2.529  0.000
   459O    -0.62906 -0.70112   1.733  4.896  0.000
   460N    -0.40540 -0.86285   1.430  3.975  0.000
   461H     0.28287  0.48176   0.717  0.000  0.000
   462H     0.27634  0.47093   0.724  0.000  0.000
   463H     0.28046  0.48320   0.720  0.000  0.000
   464H     0.08134  0.16996   0.919  0.000  0.000
   465H     0.07736  0.14520   0.923  0.000  0.000
   466H     0.07721  0.14101   0.923  0.000  0.000
   467H     0.28907  0.50776   0.711  0.000  0.000
   468H     0.25846  0.44548   0.742  0.000  0.000
   469N    -0.30701 -0.67634   1.427  3.880  0.000
   470C     0.09060  0.08860   1.040  2.869  0.000
   471C     0.38606  0.35922   1.062  2.552  0.000
   472O    -0.52332 -0.58015   1.747  4.776  0.000
   473C    -0.00129 -0.07037   1.057  2.944  0.000
   474C    -0.09522 -0.24574   1.016  3.080  0.000
   475C    -0.08035 -0.23037   1.015  3.065  0.000
   476H     0.26295  0.46749   0.737  0.000  0.000
   477H     0.06392  0.14626   0.936  0.000  0.000
   478H     0.03448  0.09838   0.966  0.000  0.000
   479H     0.04376  0.09697   0.956  0.000  0.000
   480H     0.03626  0.09101   0.964  0.000  0.000
   481H     0.03803  0.09284   0.962  0.000  0.000
   482H     0.03347  0.08768   0.967  0.000  0.000
   483H     0.03597  0.09454   0.964  0.000  0.000
   484H     0.03931  0.10114   0.961  0.000  0.000
   485N    -0.53732 -1.04395   1.439  4.098  0.000
   486C     0.10875  0.10001   1.035  2.857  0.000
   487C     0.38359  0.35690   1.056  2.560  0.000
   488O    -0.53795 -0.59209   1.746  4.792  0.000
   489C    -0.08664 -0.17820   1.048  3.038  0.000
   490C     0.49012  0.58411   0.989  2.521  0.000
   491O    -0.59737 -0.67153   1.723  4.874  0.000
   492N    -0.39821 -0.85536   1.422  3.976  0.000
   493H     0.21051  0.39944   0.789  0.000  0.000
   494H     0.05386  0.13011   0.946  0.000  0.000
   495H     0.04954  0.11757   0.950  0.000  0.000
   496H     0.06352  0.12617   0.936  0.000  0.000
   497H     0.26655  0.46654   0.733  0.000  0.000
   498H     0.24709  0.43607   0.753  0.000  0.000
   499N    -0.53751 -1.04293   1.437  4.100  0.000
   500C     0.07719  0.07061   1.048  2.875  0.000
   501C     0.56200  0.62731   0.964  2.474  0.000
   502O    -0.73951 -0.77817   1.744  4.996  0.000
   503C    -0.05347 -0.15100   1.036  3.017  0.000
   504C    -0.00584 -0.02155   1.086  2.920  0.000
   505C    -0.04230 -0.09665   1.062  2.980  0.000
   506C    -0.03065 -0.08588   1.061  2.970  0.000
   507C    -0.08269 -0.13539   1.056  3.027  0.000
   508C    -0.08626 -0.14008   1.063  3.023  0.000
   509C     0.24773  0.25659   1.020  2.732  0.000
   510O    -0.56177 -0.77328   1.709  4.853  0.000
   511O    -0.73504 -0.77864   1.749  4.986  0.000
   512H     0.19551  0.38179   0.804  0.000  0.000
   513H     0.01616  0.09094   0.984  0.000  0.000
   514H     0.02361  0.08368   0.976  0.000  0.000
   515H     0.02989  0.08909   0.970  0.000  0.000
   516H     0.03004  0.08918   0.970  0.000  0.000
   517H     0.03127  0.08969   0.969  0.000  0.000
   518H     0.03855  0.09866   0.961  0.000  0.000
   519H     0.03985  0.10381   0.960  0.000  0.000
   520H     0.37923  0.57109   0.621  0.000  0.000
   521N    -0.54673 -1.05518   1.440  4.107  0.000
   522C     0.10823  0.09938   1.033  2.858  0.000
   523C     0.38119  0.35426   1.057  2.562  0.000
   524O    -0.52925 -0.58987   1.743  4.786  0.000
   525C    -0.08933 -0.18038   1.048  3.042  0.000
   526C     0.48617  0.58111   0.988  2.525  0.000
   527O    -0.63417 -0.67870   1.735  4.900  0.000
   528N    -0.40282 -0.86078   1.423  3.980  0.000
   529H     0.22407  0.42920   0.776  0.000  0.000
   530H     0.04577  0.11651   0.954  0.000  0.000
   531H     0.05829  0.13110   0.942  0.000  0.000
   532H     0.05208  0.11363   0.948  0.000  0.000
   533H     0.25402  0.45424   0.746  0.000  0.000
   534H     0.24747  0.44611   0.753  0.000  0.000
   535N    -0.53922 -1.04443   1.437  4.102  0.000
   536C     0.07608  0.07015   1.046  2.878  0.000
   537C     0.56341  0.62905   0.964  2.473  0.000
   538O    -0.73969 -0.77827   1.744  4.996  0.000
   539C    -0.04527 -0.14314   1.036  3.009  0.000
   540C    -0.00575 -0.02157   1.086  2.919  0.000
   541C    -0.03856 -0.09336   1.062  2.977  0.000
   542C    -0.03422 -0.08923   1.061  2.973  0.000
   543C    -0.07810 -0.13118   1.056  3.022  0.000
   544C    -0.09174 -0.14539   1.064  3.028  0.000
   545C     0.24841  0.25730   1.020  2.731  0.000
   546O    -0.55972 -0.77117   1.708  4.852  0.000
   547O    -0.74517 -0.78691   1.750  4.995  0.000
   548H     0.19369  0.38040   0.806  0.000  0.000
   549H     0.01079  0.08448   0.989  0.000  0.000
   550H     0.02740  0.09010   0.973  0.000  0.000
   551H     0.02922  0.08859   0.971  0.000  0.000
   552H     0.02660  0.08658   0.973  0.000  0.000
   553H     0.03133  0.08943   0.969  0.000  0.000
   554H     0.03792  0.10004   0.962  0.000  0.000
   555H     0.04127  0.10480   0.959  0.000  0.000
   556H     0.37827  0.57003   0.622  0.000  0.000
   557N    -0.52721 -1.03187   1.443  4.084  0.000
   558C     0.08600  0.07647   1.041  2.873  0.000
   559C     0.39102  0.36417   1.064  2.545  0.000
   560O    -0.52071 -0.59707   1.742  4.779  0.000
   561C     0.19372  0.11287   0.996  2.811  0.000
   562O    -0.59695 -0.81732   1.704  4.893  0.000
   563H     0.22619  0.41214   0.774  0.000  0.000
   564H     0.04645  0.12038   0.954  0.000  0.000
   565H     0.03352  0.10243   0.966  0.000  0.000
   566H     0.03637  0.10686   0.964  0.000  0.000
   567H     0.36392  0.53582   0.636  0.000  0.000
   568N    -0.52677 -1.03335   1.437  4.090  0.000
   569C     0.10300  0.10115   1.038  2.859  0.000
   570C     0.46382  0.56802   0.994  2.542  0.000
   571O    -0.61210 -0.66878   1.729  4.883  0.000
   572C    -0.09074 -0.18118   1.049  3.042  0.000
   573C     0.48792  0.57969   0.996  2.516  0.000
   574O    -0.60635 -0.68208   1.726  4.881  0.000
   575N    -0.40262 -0.85500   1.425  3.977  0.000
   576H     0.20947  0.39803   0.791  0.000  0.000
   577H     0.04449  0.12478   0.956  0.000  0.000
   578H     0.04376  0.11202   0.956  0.000  0.000
   579H     0.05504  0.11975   0.945  0.000  0.000
   580H     0.27108  0.45918   0.729  0.000  0.000
   581H     0.26022  0.44728   0.740  0.000  0.000
   582N    -0.32791 -0.68821   1.428  3.899  0.000
   583C     0.08564  0.09274   1.040  2.874  0.000
   584C     0.47247  0.57759   0.989  2.539  0.000
   585O    -0.60480 -0.67379   1.727  4.878  0.000
   586C     0.22693  0.18389   1.022  2.751  0.000
   587O    -0.59885 -0.81255   1.711  4.888  0.000
   588C    -0.09353 -0.24076   1.017  3.077  0.000
   589H     0.25370  0.46068   0.746  0.000  0.000
   590H     0.05475  0.14278   0.945  0.000  0.000
   591H     0.02736  0.10052   0.973  0.000  0.000
   592H     0.36248  0.54866   0.638  0.000  0.000
   593H     0.04056  0.09983   0.959  0.000  0.000
   594H     0.03784  0.09626   0.962  0.000  0.000
   595H     0.02381  0.08337   0.976  0.000  0.000
   596N    -0.33198 -0.68999   1.434  3.898  0.000
   597C     0.09267  0.09205   1.044  2.863  0.000
   598C     0.57467  0.63785   0.962  2.464  0.000
   599O    -0.68231 -0.76015   1.736  4.946  0.000
   600C    -0.04793 -0.14436   1.032  3.016  0.000
   601C    -0.01358 -0.02842   1.080  2.933  0.000
   602C    -0.03831 -0.09176   1.060  2.978  0.000
   603C    -0.03343 -0.08807   1.059  2.974  0.000
   604C    -0.08405 -0.13653   1.055  3.029  0.000
   605C    -0.08640 -0.13960   1.059  3.028  0.000
   606C     0.25163  0.26233   1.020  2.728  0.000
   607O    -0.56448 -0.76100   1.705  4.859  0.000
   608O    -0.68868 -0.74920   1.739  4.950  0.000
   609H     0.25571  0.46816   0.744  0.000  0.000
   610H     0.04315  0.12398   0.957  0.000  0.000
   611H     0.03461  0.09684   0.965  0.000  0.000
   612H     0.03847  0.09890   0.962  0.000  0.000
   613H     0.03163  0.09594   0.968  0.000  0.000
   614H     0.02819  0.08642   0.972  0.000  0.000
   615H     0.03772  0.09766   0.962  0.000  0.000
   616H     0.03668  0.10059   0.963  0.000  0.000
   617H     0.37186  0.56207   0.628  0.000  0.000
   618N    -0.52385 -1.03376   1.442  4.081  0.000
   619C     0.08806  0.07845   1.039  2.873  0.000
   620C     0.38625  0.35898   1.059  2.555  0.000
   621O    -0.52860 -0.59242   1.745  4.783  0.000
   622C    -0.00390 -0.07389   1.060  2.944  0.000
   623C    -0.09112 -0.24186   1.017  3.074  0.000
   624C    -0.08457 -0.23584   1.013  3.071  0.000
   625H     0.20857  0.39655   0.791  0.000  0.000
   626H     0.03109  0.10085   0.969  0.000  0.000
   627H     0.02567  0.08979   0.974  0.000  0.000
   628H     0.04186  0.09559   0.958  0.000  0.000
   629H     0.02759  0.08339   0.972  0.000  0.000
   630H     0.03095  0.08458   0.969  0.000  0.000
   631H     0.03731  0.09126   0.963  0.000  0.000
   632H     0.03140  0.08558   0.969  0.000  0.000
   633H     0.04177  0.09826   0.958  0.000  0.000
   634N    -0.54396 -1.05195   1.439  4.105  0.000
   635C     0.10459  0.10271   1.036  2.860  0.000
   636C     0.46586  0.56988   0.995  2.539  0.000
   637O    -0.60464 -0.66714   1.726  4.878  0.000
   638C    -0.09446 -0.18426   1.048  3.047  0.000
   639C     0.48357  0.57666   0.994  2.522  0.000
   640O    -0.63770 -0.68024   1.738  4.900  0.000
   641N    -0.41043 -0.86253   1.424  3.986  0.000
   642H     0.22236  0.42999   0.778  0.000  0.000
   643H     0.03261  0.10683   0.967  0.000  0.000
   644H     0.05268  0.12623   0.947  0.000  0.000
   645H     0.04356  0.10681   0.956  0.000  0.000
   646H     0.26145  0.44952   0.739  0.000  0.000
   647H     0.24977  0.44609   0.750  0.000  0.000
   648N    -0.33046 -0.68907   1.427  3.903  0.000
   649C     0.08301  0.09023   1.041  2.876  0.000
   650C     0.46506  0.57085   0.987  2.548  0.000
   651O    -0.63672 -0.67972   1.737  4.899  0.000
   652C     0.22374  0.18092   1.022  2.754  0.000
   653O    -0.61568 -0.81872   1.711  4.905  0.000
   654C    -0.09930 -0.24627   1.017  3.082  0.000
   655H     0.24960  0.44546   0.750  0.000  0.000
   656H     0.05880  0.14685   0.941  0.000  0.000
   657H     0.03255  0.10549   0.967  0.000  0.000
   658H     0.36006  0.54434   0.640  0.000  0.000
   659H     0.03985  0.09700   0.960  0.000  0.000
   660H     0.04111  0.09944   0.959  0.000  0.000
   661H     0.02364  0.08256   0.976  0.000  0.000
   662N    -0.33309 -0.69052   1.435  3.898  0.000
   663C     0.08883  0.08855   1.044  2.867  0.000
   664C     0.57506  0.63902   0.960  2.465  0.000
   665O    -0.68804 -0.74095   1.741  4.947  0.000
   666C    -0.03915 -0.13629   1.033  3.006  0.000
   667C    -0.00582 -0.02095   1.083  2.923  0.000
   668C    -0.03196 -0.08584   1.061  2.971  0.000
   669C    -0.03499 -0.08975   1.061  2.974  0.000
   670C    -0.07597 -0.12924   1.056  3.020  0.000
   671C    -0.09959 -0.15300   1.061  3.038  0.000
   672C     0.24481  0.25407   1.020  2.735  0.000
   673O    -0.54556 -0.75449   1.704  4.842  0.000
   674O    -0.70275 -0.76700   1.740  4.963  0.000
   675H     0.25896  0.47162   0.741  0.000  0.000
   676H     0.03706  0.11679   0.963  0.000  0.000
   677H     0.03631  0.10019   0.964  0.000  0.000
   678H     0.04311  0.10569   0.957  0.000  0.000
   679H     0.03119  0.09616   0.969  0.000  0.000
   680H     0.03763  0.09547   0.962  0.000  0.000
   681H     0.04025  0.10347   0.960  0.000  0.000
   682H     0.04752  0.10692   0.952  0.000  0.000
   683H     0.38163  0.55015   0.618  0.000  0.000
   684N    -0.52841 -1.03795   1.443  4.085  0.000
   685C     0.09315  0.08356   1.038  2.869  0.000
   686C     0.38859  0.36171   1.058  2.553  0.000
   687O    -0.54179 -0.59971   1.747  4.795  0.000
   688C    -0.00517 -0.07487   1.059  2.946  0.000
   689C    -0.08736 -0.23793   1.015  3.072  0.000
   690C    -0.08200 -0.23335   1.013  3.069  0.000
   691H     0.21238  0.40002   0.788  0.000  0.000
   692H     0.02744  0.10013   0.973  0.000  0.000
   693H     0.02370  0.08738   0.976  0.000  0.000
   694H     0.03664  0.09034   0.963  0.000  0.000
   695H     0.02320  0.07877   0.977  0.000  0.000
   696H     0.03082  0.08495   0.969  0.000  0.000
   697H     0.03378  0.08773   0.966  0.000  0.000
   698H     0.03285  0.08736   0.967  0.000  0.000
   699H     0.04127  0.09776   0.959  0.000  0.000
   700N    -0.53917 -1.04802   1.443  4.096  0.000
   701C     0.08736  0.08498   1.041  2.872  0.000
   702C     0.46524  0.56950   0.998  2.537  0.000
   703O    -0.63209 -0.67792   1.740  4.892  0.000
   704C    -0.00808 -0.07702   1.058  2.950  0.000
   705C    -0.08501 -0.23508   1.014  3.071  0.000
   706C    -0.08983 -0.24067   1.014  3.076  0.000
   707H     0.21188  0.39968   0.788  0.000  0.000
   708H     0.02652  0.10420   0.973  0.000  0.000
   709H     0.02457  0.08826   0.975  0.000  0.000
   710H     0.03444  0.08778   0.966  0.000  0.000
   711H     0.02315  0.08015   0.977  0.000  0.000
   712H     0.02891  0.08340   0.971  0.000  0.000
   713H     0.03478  0.08806   0.965  0.000  0.000
   714H     0.03313  0.08761   0.967  0.000  0.000
   715H     0.03890  0.09484   0.961  0.000  0.000
   716N    -0.34500 -0.70978   1.432  3.913  0.000
   717C     0.06936  0.02530   1.015  2.916  0.000
   718C     0.39914  0.36947   1.054  2.547  0.000
   719O    -0.51156 -0.59447   1.739  4.773  0.000
   720H     0.27182  0.48196   0.728  0.000  0.000
   721H     0.09608  0.17569   0.904  0.000  0.000
   722H     0.05879  0.13393   0.941  0.000  0.000
   723N    -0.52907 -1.03683   1.437  4.092  0.000
   724C     0.10711  0.09838   1.038  2.855  0.000
   725C     0.38461  0.35868   1.056  2.559  0.000
   726O    -0.53441 -0.58952   1.743  4.792  0.000
   727C    -0.09533 -0.18626   1.050  3.045  0.000
   728C     0.48423  0.57639   0.994  2.522  0.000
   729O    -0.59327 -0.66756   1.726  4.868  0.000
   730N    -0.39539 -0.85073   1.424  3.972  0.000
   731H     0.21191  0.40204   0.788  0.000  0.000
   732H     0.05429  0.13053   0.946  0.000  0.000
   733H     0.05389  0.11899   0.946  0.000  0.000
   734H     0.06872  0.12999   0.931  0.000  0.000
   735H     0.26471  0.46445   0.735  0.000  0.000
   736H     0.24740  0.43677   0.753  0.000  0.000
   737N    -0.53227 -1.04159   1.443  4.090  0.000
   738C     0.08399  0.08156   1.042  2.874  0.000
   739C     0.47214  0.57590   0.999  2.529  0.000
   740O    -0.60818 -0.67551   1.729  4.879  0.000
   741C    -0.00700 -0.07651   1.059  2.948  0.000
   742C    -0.09134 -0.24169   1.017  3.075  0.000
   743C    -0.09060 -0.24180   1.015  3.076  0.000
   744H     0.21128  0.39948   0.789  0.000  0.000
   745H     0.03101  0.10573   0.969  0.000  0.000
   746H     0.02799  0.09227   0.972  0.000  0.000
   747H     0.04092  0.09467   0.959  0.000  0.000
   748H     0.02759  0.08459   0.972  0.000  0.000
   749H     0.02993  0.08391   0.970  0.000  0.000
   750H     0.03710  0.09103   0.963  0.000  0.000
   751H     0.03376  0.08793   0.966  0.000  0.000
   752H     0.04094  0.09694   0.959  0.000  0.000
   753N    -0.33416 -0.69760   1.428  3.906  0.000
   754C     0.06766  0.02323   1.016  2.916  0.000
   755C     0.39967  0.36943   1.055  2.545  0.000
   756O    -0.49403 -0.58633   1.737  4.757  0.000
   757H     0.27059  0.46029   0.729  0.000  0.000
   758H     0.09355  0.16390   0.906  0.000  0.000
   759H     0.06997  0.14492   0.930  0.000  0.000
   760N    -0.54363 -1.05321   1.439  4.104  0.000
   761C     0.10685  0.09799   1.036  2.857  0.000
   762C     0.38281  0.35663   1.057  2.560  0.000
   763O    -0.52677 -0.58903   1.740  4.787  0.000
   764C    -0.09584 -0.18650   1.049  3.046  0.000
   765C     0.48089  0.57386   0.993  2.526  0.000
   766O    -0.63083 -0.67425   1.737  4.894  0.000
   767N    -0.40436 -0.85985   1.424  3.980  0.000
   768H     0.22853  0.43763   0.771  0.000  0.000
   769H     0.04739  0.11775   0.953  0.000  0.000
   770H     0.05864  0.12901   0.941  0.000  0.000
   771H     0.05695  0.11724   0.943  0.000  0.000
   772H     0.25313  0.45265   0.747  0.000  0.000
   773H     0.24878  0.44639   0.751  0.000  0.000
   774N    -0.52932 -1.03776   1.441  4.088  0.000
   775C     0.08367  0.07715   1.039  2.877  0.000
   776C     0.39359  0.36807   1.053  2.553  0.000
   777O    -0.50844 -0.58953   1.736  4.772  0.000
   778C     0.22170  0.17718   1.023  2.755  0.000
   779O    -0.59591 -0.81014   1.710  4.886  0.000
   780C    -0.10497 -0.25253   1.019  3.086  0.000
   781H     0.21861  0.41926   0.781  0.000  0.000
   782H     0.03355  0.10341   0.966  0.000  0.000
   783H     0.02086  0.08958   0.979  0.000  0.000
   784H     0.36233  0.54845   0.638  0.000  0.000
   785H     0.04555  0.10394   0.954  0.000  0.000
   786H     0.03919  0.09240   0.961  0.000  0.000
   787H     0.04060  0.09891   0.959  0.000  0.000
   788H     0.23665  0.48592   0.763  0.000  0.000
   789H     0.05900  0.14099   0.941  0.000  0.000
   790H     0.22810  0.48005   0.772  0.000  0.000
   791H     0.05468  0.13469   0.945  0.000  0.000
   792H     0.23998  0.48923   0.760  0.000  0.000
   793H     0.06921  0.15126   0.931  0.000  0.000
   794H     0.22345  0.47582   0.777  0.000  0.000
   795H     0.05483  0.13415   0.945  0.000  0.000
   796H     0.23131  0.48171   0.769  0.000  0.000
   797H     0.05104  0.13027   0.949  0.000  0.000
   798H     0.24252  0.49167   0.757  0.000  0.000
   799H     0.21858  0.46860   0.781  0.000  0.000
   800H     0.21956  0.46954   0.780  0.000  0.000
   801H     0.09017  0.16985   0.910  0.000  0.000
   802H     0.07272  0.15239   0.927  0.000  0.000
   803H     0.07027  0.14938   0.930  0.000  0.000
   804H     0.06607  0.14604   0.934  0.000  0.000
   805H     0.23811  0.48759   0.762  0.000  0.000
   806H     0.05276  0.13309   0.947  0.000  0.000
   807H     0.21179  0.46184   0.788  0.000  0.000
   808H     0.23282  0.48260   0.767  0.000  0.000
   809H     0.05075  0.13035   0.949  0.000  0.000
   810H     0.21171  0.46173   0.788  0.000  0.000
   811H     0.23967  0.48922   0.760  0.000  0.000
   812H     0.05946  0.13999   0.941  0.000  0.000
   813H     0.23087  0.48103   0.769  0.000  0.000
   814H     0.23980  0.48945   0.760  0.000  0.000
   815H     0.05176  0.13099   0.948  0.000  0.000
   816H     0.22676  0.47727   0.773  0.000  0.000
   817H     0.23914  0.48882   0.761  0.000  0.000
   818H     0.04580  0.12612   0.954  0.000  0.000

Wiberg/Mayer (AO) data.
largest (>0.10) Wiberg bond orders for each atom

 ---------------------------------------------------------------------------
     #   Z sym  total        # sym  WBO       # sym  WBO       # sym  WBO
 ---------------------------------------------------------------------------
     1   7 N    3.604 --     2 C    0.939    10 H    0.881    11 H    0.868
                             9 H    0.864
     2   6 C    3.929 --     5 C    0.982     3 C    0.961    12 H    0.956
                             1 N    0.939
     3   6 C    3.902 --     4 O    1.531    17 N    1.327     2 C    0.961
     4   8 O    1.920 --     3 C    1.531    17 N    0.166
     5   6 C    3.989 --     2 C    0.982     6 C    0.978    13 H    0.959
                            14 H    0.954
     6   6 C    3.898 --     7 O    1.478     8 N    1.393     5 C    0.978
     7   8 O    1.868 --     6 C    1.478     8 N    0.165
     8   7 N    3.351 --     6 C    1.393    16 H    0.880    15 H    0.828
                             7 O    0.165
     9   1 H    0.974 --     1 N    0.864
    10   1 H    0.965 --     1 N    0.881
    11   1 H    0.960 --     1 N    0.868
    12   1 H    1.023 --     2 C    0.956
    13   1 H    1.002 --     5 C    0.959
    14   1 H    1.001 --     5 C    0.954
    15   1 H    0.936 --     8 N    0.828
    16   1 H    0.952 --     8 N    0.880
    17   7 N    3.391 --     3 C    1.327    18 C    0.935    24 H    0.884
                             4 O    0.166
    18   6 C    3.934 --    21 C    0.965    25 H    0.962    19 C    0.945
                            17 N    0.935
    19   6 C    3.891 --    20 O    1.534    33 N    1.322    18 C    0.945
    20   8 O    1.886 --    19 C    1.534    33 N    0.163
    21   6 C    3.988 --    22 C    1.006    23 C    1.004    26 H    0.967
                            18 C    0.965
    22   6 C    3.996 --    21 C    1.006    28 H    0.982    29 H    0.981
                            27 H    0.981
    23   6 C    3.995 --    21 C    1.004    32 H    0.981    31 H    0.979
                            30 H    0.979
    24   1 H    0.955 --    17 N    0.884
    25   1 H    1.021 --    18 C    0.962
    26   1 H    1.013 --    21 C    0.967
    27   1 H    1.007 --    22 C    0.981
    28   1 H    1.008 --    22 C    0.982
    29   1 H    1.010 --    22 C    0.981
    30   1 H    1.009 --    23 C    0.979
    31   1 H    1.015 --    23 C    0.979
    32   1 H    1.013 --    23 C    0.981
    33   7 N    3.377 --    19 C    1.322    34 C    0.951    37 H    0.878
                            20 O    0.163
    34   6 C    3.943 --    35 C    0.969    39 H    0.959    33 N    0.951
                            38 H    0.935
    35   6 C    3.887 --    36 O    1.528    40 N    1.300    34 C    0.969
    36   8 O    1.932 --    35 C    1.528    40 N    0.154
    37   1 H    0.955 --    33 N    0.878
    38   1 H    1.019 --    34 C    0.935
    39   1 H    1.020 --    34 C    0.959
    40   7 N    3.357 --    35 C    1.300    41 C    0.931    46 H    0.890
                            36 O    0.154
    41   6 C    3.945 --    44 C    0.990    47 H    0.965    42 C    0.940
                            40 N    0.931
    42   6 C    3.899 --    43 O    1.544    51 N    1.329    41 C    0.940
    43   8 O    1.900 --    42 C    1.544    51 N    0.170
    44   6 C    3.912 --    41 C    0.990    48 H    0.971    49 H    0.964
                            45 O    0.948
    45   8 O    1.897 --    44 C    0.948    50 H    0.851
    46   1 H    0.957 --    40 N    0.890
    47   1 H    1.014 --    41 C    0.965
    48   1 H    1.016 --    44 C    0.971
    49   1 H    1.018 --    44 C    0.964
    50   1 H    0.892 --    45 O    0.851
    51   7 N    3.380 --    42 C    1.329    52 C    0.946    59 H    0.868
                            43 O    0.170
    52   6 C    3.949 --    55 C    0.965    60 H    0.956    53 C    0.950
                            51 N    0.946
    53   6 C    3.894 --    54 O    1.537    65 N    1.317    52 C    0.950
    54   8 O    1.894 --    53 C    1.537    65 N    0.164
    55   6 C    3.989 --    56 C    0.968    61 H    0.967    52 C    0.965
                            62 H    0.963
    56   6 C    3.893 --    57 O    1.533    58 N    1.348    55 C    0.968
    57   8 O    1.913 --    56 C    1.533    58 N    0.165
    58   7 N    3.340 --    56 C    1.348    64 H    0.894    63 H    0.880
                            57 O    0.165
    59   1 H    0.957 --    51 N    0.868
    60   1 H    1.024 --    52 C    0.956
    61   1 H    1.017 --    55 C    0.967
    62   1 H    1.012 --    55 C    0.963
    63   1 H    0.954 --    58 N    0.880
    64   1 H    0.962 --    58 N    0.894
    65   7 N    3.376 --    53 C    1.317    66 C    0.946    72 H    0.872
                            54 O    0.164
    66   6 C    3.942 --    73 H    0.959    69 C    0.952    67 C    0.950
                            65 N    0.946
    67   6 C    3.899 --    68 O    1.525    79 N    1.339    66 C    0.950
    68   8 O    1.909 --    67 C    1.525    79 N    0.167
    69   6 C    3.910 --    71 C    0.998    74 H    0.964    66 C    0.952
                            70 O    0.945
    70   8 O    1.905 --    69 C    0.945    75 H    0.859
    71   6 C    3.994 --    69 C    0.998    76 H    0.982    78 H    0.978
                            77 H    0.978
    72   1 H    0.958 --    65 N    0.872
    73   1 H    1.027 --    66 C    0.959
    74   1 H    1.019 --    69 C    0.964
    75   1 H    0.886 --    70 O    0.859
    76   1 H    1.010 --    71 C    0.982
    77   1 H    1.010 --    71 C    0.978
    78   1 H    1.023 --    71 C    0.978
    79   7 N    3.386 --    67 C    1.339    80 C    0.931    92 H    0.887
                            68 O    0.167
    80   6 C    3.920 --    83 C    0.967    93 H    0.953    79 N    0.931
                            81 C    0.902
    81   6 C    3.886 --    82 O    1.492    91 O    1.453    80 C    0.902
    82   8 O    1.743 --    81 C    1.492    91 O    0.178
    83   6 C    3.996 --    84 C    1.003    94 H    0.976    95 H    0.974
                            80 C    0.967
    84   6 C    3.988 --    86 C    1.419    85 C    1.412    83 C    1.003
    85   6 C    3.993 --    87 C    1.443    84 C    1.412    96 H    0.970
                            88 C    0.112
    86   6 C    3.994 --    88 C    1.442    84 C    1.419    97 H    0.973
                            87 C    0.107
    87   6 C    3.991 --    85 C    1.443    89 C    1.386    98 H    0.963
                            86 C    0.107
    88   6 C    3.989 --    86 C    1.442    89 C    1.379    99 H    0.970
                            85 C    0.112
    89   6 C    3.903 --    87 C    1.386    88 C    1.379    90 O    1.012
    90   8 O    2.030 --    89 C    1.012   100 H    0.843
    91   8 O    1.730 --    81 C    1.453    82 O    0.178
    92   1 H    0.960 --    79 N    0.887
    93   1 H    1.030 --    80 C    0.953
    94   1 H    1.003 --    83 C    0.976
    95   1 H    1.010 --    83 C    0.974
    96   1 H    1.012 --    85 C    0.970
    97   1 H    1.002 --    86 C    0.973
    98   1 H    1.008 --    87 C    0.963
    99   1 H    0.999 --    88 C    0.970
   100   1 H    0.866 --    90 O    0.843
   101   7 N    2.931 --   102 C    0.981   107 H    0.943   798 H    0.934
   102   6 C    3.976 --   105 C    0.982   101 N    0.981   108 H    0.972
                           103 C    0.953
   103   6 C    3.887 --   104 O    1.530   112 N    1.323   102 C    0.953
   104   8 O    1.888 --   103 C    1.530   112 N    0.165
   105   6 C    3.920 --   102 C    0.982   109 H    0.973   110 H    0.965
                           106 O    0.955
   106   8 O    1.872 --   105 C    0.955   111 H    0.857
   107   1 H    0.959 --   101 N    0.943
   108   1 H    1.003 --   102 C    0.972
   109   1 H    1.017 --   105 C    0.973
   110   1 H    1.022 --   105 C    0.965
   111   1 H    0.872 --   106 O    0.857
   112   7 N    3.370 --   103 C    1.323   113 C    0.948   120 H    0.865
                           104 O    0.165
   113   6 C    3.948 --   116 C    0.963   121 H    0.959   112 N    0.948
                           114 C    0.943
   114   6 C    3.897 --   115 O    1.545   126 N    1.321   113 C    0.943
   115   8 O    1.900 --   114 C    1.545   126 N    0.168
   116   6 C    3.990 --   117 C    0.972   122 H    0.966   113 C    0.963
                           123 H    0.963
   117   6 C    3.886 --   118 O    1.544   119 N    1.322   116 C    0.972
   118   8 O    1.914 --   117 C    1.544   119 N    0.161
   119   7 N    3.318 --   117 C    1.322   124 H    0.899   125 H    0.894
                           118 O    0.161
   120   1 H    0.954 --   112 N    0.865
   121   1 H    1.027 --   113 C    0.959
   122   1 H    1.020 --   116 C    0.966
   123   1 H    1.013 --   116 C    0.963
   124   1 H    0.937 --   119 N    0.899
   125   1 H    0.957 --   119 N    0.894
   126   7 N    3.380 --   114 C    1.321   127 C    0.937   133 H    0.879
                           115 O    0.168
   127   6 C    3.940 --   134 H    0.962   130 C    0.956   128 C    0.951
                           126 N    0.937
   128   6 C    3.900 --   129 O    1.524   140 N    1.337   127 C    0.951
   129   8 O    1.906 --   128 C    1.524   140 N    0.168
   130   6 C    3.921 --   132 C    0.997   135 H    0.960   127 C    0.956
                           131 O    0.948
   131   8 O    1.900 --   130 C    0.948   136 H    0.825
   132   6 C    3.995 --   130 C    0.997   137 H    0.982   139 H    0.981
                           138 H    0.980
   133   1 H    0.964 --   126 N    0.879
   134   1 H    1.027 --   127 C    0.962
   135   1 H    1.020 --   130 C    0.960
   136   1 H    0.893 --   131 O    0.825
   137   1 H    1.014 --   132 C    0.982
   138   1 H    1.018 --   132 C    0.980
   139   1 H    1.014 --   132 C    0.981
   140   7 N    3.383 --   128 C    1.337   141 C    0.935   153 H    0.868
                           129 O    0.168
   141   6 C    3.934 --   144 C    0.959   154 H    0.954   140 N    0.935
                           142 C    0.925
   142   6 C    3.873 --   152 O    1.458   143 O    1.439   141 C    0.925
   143   8 O    1.835 --   142 C    1.439   152 O    0.167
   144   6 C    3.994 --   145 C    1.011   156 H    0.970   155 H    0.964
                           141 C    0.959
   145   6 C    3.989 --   147 C    1.410   146 C    1.403   144 C    1.011
   146   6 C    3.993 --   148 C    1.459   145 C    1.403   157 H    0.969
                           149 C    0.105
   147   6 C    3.994 --   149 C    1.448   145 C    1.410   158 H    0.971
                           148 C    0.105
   148   6 C    3.990 --   146 C    1.459   150 C    1.365   159 H    0.963
                           147 C    0.105
   149   6 C    3.989 --   147 C    1.448   150 C    1.376   160 H    0.960
                           146 C    0.105
   150   6 C    3.907 --   149 C    1.376   148 C    1.365   151 O    1.026
   151   8 O    2.033 --   150 C    1.026   161 H    0.800
   152   8 O    1.824 --   142 C    1.458   143 O    0.167
   153   1 H    0.961 --   140 N    0.868
   154   1 H    1.027 --   141 C    0.954
   155   1 H    1.017 --   144 C    0.964
   156   1 H    1.014 --   144 C    0.970
   157   1 H    1.020 --   146 C    0.969
   158   1 H    1.006 --   147 C    0.971
   159   1 H    1.012 --   148 C    0.963
   160   1 H    1.013 --   149 C    0.960
   161   1 H    0.882 --   151 O    0.800
   162   8 O    1.812 --   163 H    0.855   164 H    0.845
   163   1 H    0.874 --   162 O    0.855
   164   1 H    0.883 --   162 O    0.845
   165   8 O    1.773 --   166 H    0.861   167 H    0.852
   166   1 H    0.890 --   165 O    0.861
   167   1 H    0.883 --   165 O    0.852
   168   7 N    2.946 --   169 C    0.988   181 H    0.949   799 H    0.945
   169   6 C    3.966 --   168 N    0.988   182 H    0.957   172 C    0.952
                           170 C    0.937
   170   6 C    3.866 --   180 O    1.456   171 O    1.428   169 C    0.937
   171   8 O    1.797 --   170 C    1.428   180 O    0.165
   172   6 C    3.996 --   173 C    1.014   183 H    0.975   184 H    0.970
                           169 C    0.952
   173   6 C    3.989 --   175 C    1.408   174 C    1.401   172 C    1.014
   174   6 C    3.994 --   176 C    1.460   173 C    1.401   185 H    0.972
                           177 C    0.104
   175   6 C    3.995 --   177 C    1.449   173 C    1.408   186 H    0.971
                           176 C    0.107
   176   6 C    3.990 --   174 C    1.460   178 C    1.372   187 H    0.973
                           175 C    0.107
   177   6 C    3.990 --   175 C    1.449   178 C    1.381   188 H    0.969
                           174 C    0.104
   178   6 C    3.903 --   177 C    1.381   176 C    1.372   179 O    1.019
   179   8 O    1.998 --   178 C    1.019   189 H    0.847
   180   8 O    1.819 --   170 C    1.456   171 O    0.165
   181   1 H    0.972 --   168 N    0.949
   182   1 H    1.026 --   169 C    0.957
   183   1 H    1.008 --   172 C    0.975
   184   1 H    1.014 --   172 C    0.970
   185   1 H    1.006 --   174 C    0.972
   186   1 H    1.006 --   175 C    0.971
   187   1 H    1.001 --   176 C    0.973
   188   1 H    1.006 --   177 C    0.969
   189   1 H    0.868 --   179 O    0.847
   190   7 N    2.945 --   191 C    0.988   203 H    0.950   800 H    0.945
   191   6 C    3.967 --   190 N    0.988   204 H    0.968   194 C    0.953
                           192 C    0.937
   192   6 C    3.866 --   202 O    1.448   193 O    1.436   191 C    0.937
   193   8 O    1.806 --   192 C    1.436   202 O    0.165
   194   6 C    3.996 --   195 C    1.013   206 H    0.969   205 H    0.964
                           191 C    0.953
   195   6 C    3.989 --   197 C    1.408   196 C    1.400   194 C    1.013
   196   6 C    3.994 --   198 C    1.459   195 C    1.400   207 H    0.972
                           199 C    0.104
   197   6 C    3.994 --   199 C    1.450   195 C    1.408   208 H    0.972
                           198 C    0.107
   198   6 C    3.991 --   196 C    1.459   200 C    1.371   209 H    0.973
                           197 C    0.107
   199   6 C    3.990 --   197 C    1.450   200 C    1.381   210 H    0.969
                           196 C    0.104
   200   6 C    3.904 --   199 C    1.381   198 C    1.371   201 O    1.022
   201   8 O    1.997 --   200 C    1.022   211 H    0.843
   202   8 O    1.805 --   192 C    1.448   193 O    0.165
   203   1 H    0.973 --   190 N    0.950
   204   1 H    1.017 --   191 C    0.968
   205   1 H    1.016 --   194 C    0.964
   206   1 H    1.013 --   194 C    0.969
   207   1 H    1.007 --   196 C    0.972
   208   1 H    1.003 --   197 C    0.972
   209   1 H    1.002 --   198 C    0.973
   210   1 H    0.998 --   199 C    0.969
   211   1 H    0.863 --   201 O    0.843
   212   8 O    1.811 --   213 H    0.854   214 H    0.844
   213   1 H    0.873 --   212 O    0.854
   214   1 H    0.881 --   212 O    0.844
   215   8 O    1.811 --   216 H    0.857   217 H    0.843
   216   1 H    0.876 --   215 O    0.857
   217   1 H    0.883 --   215 O    0.843
   218   8 O    1.762 --   219 H    0.854   220 H    0.850
   219   1 H    0.885 --   218 O    0.854
   220   1 H    0.879 --   218 O    0.850
   221   8 O    1.773 --   222 H    0.861   223 H    0.852
   222   1 H    0.891 --   221 O    0.861
   223   1 H    0.883 --   221 O    0.852
   224   8 O    1.758 --   225 H    0.860   226 H    0.855
   225   1 H    0.890 --   224 O    0.860
   226   1 H    0.880 --   224 O    0.855
   227   7 N    3.602 --   228 C    0.946   236 H    0.880   237 H    0.862
                           235 H    0.858
   228   6 C    3.941 --   229 C    0.995   231 C    0.970   238 H    0.957
                           227 N    0.946
   229   6 C    3.812 --   230 O    1.795   228 C    0.995   801 H    0.956
   230   8 O    2.015 --   229 C    1.795
   231   6 C    3.986 --   232 C    0.977   228 C    0.970   239 H    0.959
                           240 H    0.952
   232   6 C    3.899 --   233 O    1.537   234 N    1.339   231 C    0.977
   233   8 O    1.880 --   232 C    1.537   234 N    0.164
   234   7 N    3.327 --   232 C    1.339   242 H    0.897   241 H    0.891
                           233 O    0.164
   235   1 H    0.967 --   227 N    0.858
   236   1 H    0.961 --   227 N    0.880
   237   1 H    0.958 --   227 N    0.862
   238   1 H    1.004 --   228 C    0.957
   239   1 H    0.997 --   231 C    0.959
   240   1 H    0.991 --   231 C    0.952
   241   1 H    0.926 --   234 N    0.891
   242   1 H    0.924 --   234 N    0.897
   243   7 N    3.601 --   244 C    0.933   251 H    0.897   252 H    0.879
                           253 H    0.852
   244   6 C    3.924 --   247 C    0.981   254 H    0.963   245 C    0.960
                           243 N    0.933
   245   6 C    3.907 --   246 O    1.536   259 N    1.326   244 C    0.960
   246   8 O    1.926 --   245 C    1.536   259 N    0.168
   247   6 C    3.986 --   244 C    0.981   248 C    0.974   255 H    0.959
                           256 H    0.955
   248   6 C    3.904 --   249 O    1.551   250 N    1.340   247 C    0.974
   249   8 O    1.838 --   248 C    1.551   250 N    0.169
   250   7 N    3.326 --   248 C    1.340   257 H    0.895   258 H    0.877
                           249 O    0.169
   251   1 H    0.936 --   243 N    0.897
   252   1 H    0.947 --   243 N    0.879
   253   1 H    0.951 --   243 N    0.852
   254   1 H    1.003 --   244 C    0.963
   255   1 H    1.001 --   247 C    0.959
   256   1 H    0.999 --   247 C    0.955
   257   1 H    0.930 --   250 N    0.895
   258   1 H    0.951 --   250 N    0.877
   259   7 N    3.391 --   245 C    1.326   260 C    0.929   266 H    0.895
                           246 O    0.168
   260   6 C    3.927 --   263 C    0.966   267 H    0.962   261 C    0.942
                           259 N    0.929
   261   6 C    3.899 --   262 O    1.557   275 N    1.316   260 C    0.942
   262   8 O    1.841 --   261 C    1.557   275 N    0.169
   263   6 C    3.989 --   264 C    1.006   265 C    1.004   268 H    0.973
                           260 C    0.966
   264   6 C    3.996 --   263 C    1.006   269 H    0.985   270 H    0.983
                           271 H    0.982
   265   6 C    3.996 --   263 C    1.004   274 H    0.985   272 H    0.984
                           273 H    0.980
   266   1 H    0.938 --   259 N    0.895
   267   1 H    1.021 --   260 C    0.962
   268   1 H    1.006 --   263 C    0.973
   269   1 H    1.004 --   264 C    0.985
   270   1 H    1.009 --   264 C    0.983
   271   1 H    1.011 --   264 C    0.982
   272   1 H    1.004 --   265 C    0.984
   273   1 H    1.015 --   265 C    0.980
   274   1 H    1.008 --   265 C    0.985
   275   7 N    3.372 --   261 C    1.316   276 C    0.949   279 H    0.879
                           262 O    0.169
   276   6 C    3.943 --   281 H    0.968   277 C    0.966   275 N    0.949
                           280 H    0.937
   277   6 C    3.892 --   278 O    1.564   282 N    1.281   276 C    0.966
   278   8 O    1.862 --   277 C    1.564   282 N    0.158
   279   1 H    0.957 --   275 N    0.879
   280   1 H    1.021 --   276 C    0.937
   281   1 H    1.015 --   276 C    0.968
   282   7 N    3.344 --   277 C    1.281   283 C    0.933   288 H    0.892
                           278 O    0.158
   283   6 C    3.948 --   286 C    0.990   289 H    0.964   284 C    0.941
                           282 N    0.933
   284   6 C    3.895 --   285 O    1.553   293 N    1.315   283 C    0.941
   285   8 O    1.906 --   284 C    1.553   293 N    0.167
   286   6 C    3.918 --   283 C    0.990   290 H    0.971   291 H    0.965
                           287 O    0.954
   287   8 O    1.869 --   286 C    0.954   292 H    0.856
   288   1 H    0.960 --   282 N    0.892
   289   1 H    1.011 --   283 C    0.964
   290   1 H    1.016 --   286 C    0.971
   291   1 H    1.014 --   286 C    0.965
   292   1 H    0.871 --   287 O    0.856
[...]
   528   7 N    3.319 --   526 C    1.319   534 H    0.897   533 H    0.886
                           527 O    0.168
   529   1 H    0.971 --   521 N    0.917
   530   1 H    1.004 --   522 C    0.959
   531   1 H    1.020 --   525 C    0.968
   532   1 H    1.007 --   525 C    0.967
   533   1 H    0.957 --   528 N    0.886
   534   1 H    0.962 --   528 N    0.897
   535   7 N    2.945 --   536 C    0.985   548 H    0.952   810 H    0.948
   536   6 C    3.957 --   535 N    0.985   549 H    0.967   539 C    0.960
                           537 C    0.917
   537   6 C    3.878 --   538 O    1.478   547 O    1.447   536 C    0.917
   538   8 O    1.723 --   537 C    1.478   547 O    0.174
   539   6 C    3.996 --   540 C    1.005   551 H    0.973   550 H    0.966
                           536 C    0.960
   540   6 C    3.988 --   542 C    1.413   541 C    1.409   539 C    1.005
   541   6 C    3.993 --   543 C    1.439   540 C    1.409   552 H    0.972
                           544 C    0.111
   542   6 C    3.994 --   544 C    1.442   540 C    1.413   553 H    0.972
                           543 C    0.107
   543   6 C    3.990 --   541 C    1.439   545 C    1.384   554 H    0.964
                           542 C    0.107
   544   6 C    3.988 --   542 C    1.442   545 C    1.373   555 H    0.960
                           541 C    0.111
   545   6 C    3.908 --   543 C    1.384   544 C    1.373   546 O    1.019
   546   8 O    2.029 --   545 C    1.019   556 H    0.798
   547   8 O    1.712 --   537 C    1.447   538 O    0.174
   548   1 H    0.974 --   535 N    0.952
   549   1 H    1.020 --   536 C    0.967
   550   1 H    1.022 --   539 C    0.966
   551   1 H    1.012 --   539 C    0.973
   552   1 H    1.009 --   541 C    0.972
   553   1 H    1.005 --   542 C    0.972
   554   1 H    1.010 --   543 C    0.964
   555   1 H    1.011 --   544 C    0.960
   556   1 H    0.881 --   546 O    0.798
   557   7 N    2.938 --   558 C    0.971   563 H    0.937   811 H    0.934
   558   6 C    3.974 --   561 C    0.982   559 C    0.978   557 N    0.971
                           564 H    0.966
   559   6 C    3.798 --   560 O    1.791   558 C    0.978   812 H    0.962
   560   8 O    1.976 --   559 C    1.791
   561   6 C    3.916 --   558 C    0.982   565 H    0.974   566 H    0.965
                           562 O    0.949
   562   8 O    1.899 --   561 C    0.949   567 H    0.848
   563   1 H    0.954 --   557 N    0.937
   564   1 H    1.009 --   558 C    0.966
   565   1 H    1.013 --   561 C    0.974
   566   1 H    1.018 --   561 C    0.965
   567   1 H    0.888 --   562 O    0.848
   568   7 N    2.946 --   569 C    1.001   576 H    0.946   813 H    0.941
   569   6 C    3.974 --   568 N    1.001   577 H    0.964   572 C    0.952
                           570 C    0.949
   570   6 C    3.892 --   571 O    1.558   582 N    1.303   569 C    0.949
   571   8 O    1.883 --   570 C    1.558   582 N    0.166
   572   6 C    3.994 --   573 C    0.977   578 H    0.969   579 H    0.962
                           569 C    0.952
   573   6 C    3.880 --   574 O    1.536   575 N    1.317   572 C    0.977
   574   8 O    1.913 --   573 C    1.536   575 N    0.156
   575   7 N    3.314 --   573 C    1.317   581 H    0.905   580 H    0.895
                           574 O    0.156
   576   1 H    0.964 --   568 N    0.946
   577   1 H    1.021 --   569 C    0.964
   578   1 H    1.012 --   572 C    0.969
   579   1 H    1.013 --   572 C    0.962
   580   1 H    0.932 --   575 N    0.895
   581   1 H    0.939 --   575 N    0.905
   582   7 N    3.366 --   570 C    1.303   583 C    0.942   589 H    0.880
                           571 O    0.166
   583   6 C    3.945 --   590 H    0.962   586 C    0.956   584 C    0.952
                           582 N    0.942
   584   6 C    3.897 --   585 O    1.529   596 N    1.327   583 C    0.952
   585   8 O    1.908 --   584 C    1.529   596 N    0.166
   586   6 C    3.922 --   588 C    0.996   591 H    0.961   583 C    0.956
                           587 O    0.948
   587   8 O    1.900 --   586 C    0.948   592 H    0.825
   588   6 C    3.995 --   586 C    0.996   593 H    0.982   595 H    0.981
                           594 H    0.980
   589   1 H    0.964 --   582 N    0.880
   590   1 H    1.028 --   583 C    0.962
   591   1 H    1.020 --   586 C    0.961
   592   1 H    0.893 --   587 O    0.825
   593   1 H    1.014 --   588 C    0.982
   594   1 H    1.017 --   588 C    0.980
   595   1 H    1.014 --   588 C    0.981
   596   7 N    3.377 --   584 C    1.327   597 C    0.936   609 H    0.873
                           585 O    0.166
   597   6 C    3.935 --   600 C    0.960   610 H    0.954   596 N    0.936
                           598 C    0.926
   598   6 C    3.874 --   608 O    1.466   599 O    1.434   597 C    0.926
   599   8 O    1.830 --   598 C    1.434   608 O    0.168
   600   6 C    3.995 --   601 C    1.011   611 H    0.975   612 H    0.972
                           597 C    0.960
   601   6 C    3.989 --   603 C    1.410   602 C    1.404   600 C    1.011
   602   6 C    3.994 --   604 C    1.461   601 C    1.404   613 H    0.969
                           605 C    0.105
   603   6 C    3.995 --   605 C    1.451   601 C    1.410   614 H    0.972
                           604 C    0.105
   604   6 C    3.990 --   602 C    1.461   606 C    1.364   615 H    0.966
                           603 C    0.105
   605   6 C    3.990 --   603 C    1.451   606 C    1.376   616 H    0.960
                           602 C    0.105
   606   6 C    3.911 --   605 C    1.376   604 C    1.364   607 O    1.039
   607   8 O    2.006 --   606 C    1.039   617 H    0.804
   608   8 O    1.811 --   598 C    1.466   599 O    0.168
   609   1 H    0.960 --   596 N    0.873
   610   1 H    1.027 --   597 C    0.954
   611   1 H    1.008 --   600 C    0.975
   612   1 H    1.011 --   600 C    0.972
   613   1 H    1.015 --   602 C    0.969
   614   1 H    1.005 --   603 C    0.972
   615   1 H    1.007 --   604 C    0.966
   616   1 H    1.015 --   605 C    0.960
   617   1 H    0.887 --   607 O    0.804
   618   7 N    2.943 --   619 C    0.978   625 H    0.945   814 H    0.931
   619   6 C    3.972 --   620 C    0.987   618 N    0.978   626 H    0.974
                           622 C    0.953
   620   6 C    3.806 --   621 O    1.795   619 C    0.987   815 H    0.964
   621   8 O    1.955 --   620 C    1.795
   622   6 C    3.992 --   624 C    1.010   623 C    1.001   627 H    0.970
                           619 C    0.953
   623   6 C    3.997 --   622 C    1.001   630 H    0.983   628 H    0.983
                           629 H    0.982
   624   6 C    3.997 --   622 C    1.010   632 H    0.981   633 H    0.979
                           631 H    0.977
   625   1 H    0.966 --   618 N    0.945
   626   1 H    1.008 --   619 C    0.974
   627   1 H    1.014 --   622 C    0.970
   628   1 H    1.009 --   623 C    0.983
   629   1 H    1.009 --   623 C    0.982
   630   1 H    1.006 --   623 C    0.983
   631   1 H    1.008 --   624 C    0.977
   632   1 H    1.005 --   624 C    0.981
   633   1 H    1.005 --   624 C    0.979
   634   7 N    2.938 --   635 C    1.005   816 H    0.943   642 H    0.912
   635   6 C    3.981 --   634 N    1.005   643 H    0.969   638 C    0.953
                           636 C    0.950
   636   6 C    3.886 --   637 O    1.552   648 N    1.298   635 C    0.950
   637   8 O    1.903 --   636 C    1.552   648 N    0.162
   638   6 C    3.993 --   639 C    0.972   645 H    0.967   644 H    0.967
                           635 C    0.953
   639   6 C    3.889 --   640 O    1.572   641 N    1.305   638 C    0.972
   640   8 O    1.837 --   639 C    1.572   641 N    0.165
   641   7 N    3.304 --   639 C    1.305   646 H    0.900   647 H    0.897
                           640 O    0.165
   642   1 H    0.972 --   634 N    0.912
   643   1 H    1.004 --   635 C    0.969
   644   1 H    1.021 --   638 C    0.967
   645   1 H    1.011 --   638 C    0.967
   646   1 H    0.938 --   641 N    0.900
   647   1 H    0.961 --   641 N    0.897
   648   7 N    3.362 --   636 C    1.298   649 C    0.935   655 H    0.900
                           637 O    0.162
   649   6 C    3.938 --   656 H    0.962   652 C    0.958   650 C    0.949
                           648 N    0.935
   650   6 C    3.906 --   651 O    1.546   662 N    1.330   649 C    0.949
   651   8 O    1.841 --   650 C    1.546   662 N    0.174
   652   6 C    3.920 --   654 C    0.997   657 H    0.961   649 C    0.958
                           653 O    0.948
   653   8 O    1.870 --   652 C    0.948   658 H    0.832
   654   6 C    3.995 --   652 C    0.997   661 H    0.986   659 H    0.983
                           660 H    0.980
   655   1 H    0.951 --   648 N    0.900
   656   1 H    1.028 --   649 C    0.962
   657   1 H    1.020 --   652 C    0.961
   658   1 H    0.894 --   653 O    0.832
   659   1 H    1.010 --   654 C    0.983
   660   1 H    1.018 --   654 C    0.980
   661   1 H    1.010 --   654 C    0.986
   662   7 N    3.378 --   650 C    1.330   663 C    0.935   675 H    0.868
                           651 O    0.174
   663   6 C    3.933 --   676 H    0.964   666 C    0.959   662 N    0.935
                           664 C    0.923
   664   6 C    3.878 --   665 O    1.480   674 O    1.435   663 C    0.923
   665   8 O    1.799 --   664 C    1.480   674 O    0.172
   666   6 C    3.994 --   667 C    1.012   678 H    0.969   677 H    0.964
                           663 C    0.959
   667   6 C    3.989 --   669 C    1.411   668 C    1.403   666 C    1.012
   668   6 C    3.993 --   670 C    1.459   667 C    1.403   679 H    0.969
                           671 C    0.105
   669   6 C    3.994 --   671 C    1.447   667 C    1.411   680 H    0.972
                           670 C    0.106
   670   6 C    3.990 --   668 C    1.459   672 C    1.368   681 H    0.963
                           669 C    0.106
   671   6 C    3.988 --   669 C    1.447   672 C    1.380   682 H    0.969
                           668 C    0.105
   672   6 C    3.901 --   671 C    1.380   670 C    1.368   673 O    1.012
   673   8 O    2.034 --   672 C    1.012   683 H    0.841
   674   8 O    1.801 --   664 C    1.435   665 O    0.172
   675   1 H    0.961 --   662 N    0.868
   676   1 H    1.022 --   663 C    0.964
   677   1 H    1.016 --   666 C    0.964
   678   1 H    1.013 --   666 C    0.969
   679   1 H    1.021 --   668 C    0.969
   680   1 H    1.002 --   669 C    0.972
   681   1 H    1.012 --   670 C    0.963
   682   1 H    0.997 --   671 C    0.969
   683   1 H    0.867 --   673 O    0.841
   684   7 N    2.942 --   685 C    0.978   691 H    0.944   817 H    0.932
   685   6 C    3.971 --   686 C    0.986   684 N    0.978   692 H    0.971
                           688 C    0.954
   686   6 C    3.806 --   687 O    1.796   685 C    0.986   818 H    0.964
   687   8 O    1.933 --   686 C    1.796
   688   6 C    3.993 --   690 C    1.010   689 C    1.001   693 H    0.973
                           685 C    0.954
   689   6 C    3.997 --   688 C    1.001   695 H    0.984   694 H    0.983
                           696 H    0.983
   690   6 C    3.997 --   688 C    1.010   698 H    0.979   699 H    0.979
                           697 H    0.977
   691   1 H    0.963 --   684 N    0.944
   692   1 H    1.023 --   685 C    0.971
   693   1 H    1.010 --   688 C    0.973
   694   1 H    1.010 --   689 C    0.983
   695   1 H    1.009 --   689 C    0.984
   696   1 H    1.009 --   689 C    0.983
   697   1 H    1.008 --   690 C    0.977
   698   1 H    1.007 --   690 C    0.979
   699   1 H    1.005 --   690 C    0.979
   700   7 N    2.941 --   701 C    0.984   707 H    0.944   788 H    0.935
   701   6 C    3.971 --   700 N    0.984   708 H    0.971   704 C    0.964
                           702 C    0.956
   702   6 C    3.883 --   703 O    1.556   716 N    1.294   701 C    0.956
   703   8 O    1.846 --   702 C    1.556   716 N    0.161
   704   6 C    3.993 --   706 C    1.010   705 C    1.001   709 H    0.974
                           701 C    0.964
   705   6 C    3.997 --   704 C    1.001   710 H    0.986   711 H    0.984
                           712 H    0.983
   706   6 C    3.996 --   704 C    1.010   713 H    0.980   715 H    0.980
                           714 H    0.980
   707   1 H    0.964 --   700 N    0.944
   708   1 H    1.018 --   701 C    0.971
   709   1 H    1.010 --   704 C    0.974
   710   1 H    1.008 --   705 C    0.986
   711   1 H    1.010 --   705 C    0.984
   712   1 H    1.009 --   705 C    0.983
   713   1 H    1.005 --   706 C    0.980
   714   1 H    1.007 --   706 C    0.980
   715   1 H    1.003 --   706 C    0.980
   716   7 N    3.343 --   702 C    1.294   717 C    0.954   720 H    0.858
                           703 O    0.161
   717   6 C    3.955 --   718 C    1.004   722 H    0.958   716 N    0.954
                           721 H    0.924
   718   6 C    3.813 --   719 O    1.771   717 C    1.004   789 H    0.962
   719   8 O    2.001 --   718 C    1.771
   720   1 H    0.948 --   716 N    0.858
   721   1 H    1.013 --   717 C    0.924
   722   1 H    1.022 --   717 C    0.958
   723   7 N    2.943 --   724 C    0.999   731 H    0.944   790 H    0.941
   724   6 C    3.976 --   723 N    0.999   725 C    0.984   732 H    0.956
                           727 C    0.943
   725   6 C    3.816 --   726 O    1.806   724 C    0.984   791 H    0.962
   726   8 O    1.939 --   725 C    1.806
   727   6 C    3.992 --   733 H    0.977   728 C    0.970   734 H    0.964
                           724 C    0.943
   728   6 C    3.892 --   729 O    1.551   730 N    1.320   727 C    0.970
   729   8 O    1.921 --   728 C    1.551   730 N    0.163
   730   7 N    3.322 --   728 C    1.320   736 H    0.910   735 H    0.880
                           729 O    0.163
   731   1 H    0.967 --   723 N    0.944
   732   1 H    1.022 --   724 C    0.956
   733   1 H    0.999 --   727 C    0.977
   734   1 H    1.003 --   727 C    0.964
   735   1 H    0.952 --   730 N    0.880
   736   1 H    0.948 --   730 N    0.910
   737   7 N    2.942 --   738 C    0.985   744 H    0.944   792 H    0.933
   738   6 C    3.971 --   737 N    0.985   745 H    0.973   741 C    0.961
                           739 C    0.957
   739   6 C    3.874 --   740 O    1.543   753 N    1.289   738 C    0.957
   740   8 O    1.901 --   739 C    1.543   753 N    0.155
   741   6 C    3.992 --   743 C    1.010   742 C    1.001   746 H    0.969
                           738 C    0.961
   742   6 C    3.997 --   741 C    1.001   749 H    0.983   748 H    0.983
                           747 H    0.983
   743   6 C    3.996 --   741 C    1.010   751 H    0.981   752 H    0.980
                           750 H    0.978
   744   1 H    0.964 --   737 N    0.944
   745   1 H    1.005 --   738 C    0.973
   746   1 H    1.014 --   741 C    0.969
   747   1 H    1.009 --   742 C    0.983
   748   1 H    1.008 --   742 C    0.983
   749   1 H    1.006 --   742 C    0.983
   750   1 H    1.007 --   743 C    0.978
   751   1 H    1.005 --   743 C    0.981
   752   1 H    1.003 --   743 C    0.980
   753   7 N    3.346 --   739 C    1.289   754 C    0.949   757 H    0.894
                           740 O    0.155
   754   6 C    3.951 --   755 C    1.001   759 H    0.957   753 N    0.949
                           758 H    0.936
   755   6 C    3.812 --   756 O    1.774   754 C    1.001   793 H    0.961
   756   8 O    2.022 --   755 C    1.774
   757   1 H    0.930 --   753 N    0.894
   758   1 H    1.000 --   754 C    0.936
   759   1 H    1.019 --   754 C    0.957
   760   7 N    2.935 --   761 C    1.004   794 H    0.943   768 H    0.908
   761   6 C    3.982 --   760 N    1.004   762 C    0.985   769 H    0.962
                           764 C    0.941
   762   6 C    3.813 --   763 O    1.797   761 C    0.985   795 H    0.962
   763   8 O    1.959 --   762 C    1.797
   764   6 C    3.991 --   770 H    0.973   765 C    0.968   771 H    0.966
                           761 C    0.941
   765   6 C    3.895 --   766 O    1.573   767 N    1.314   764 C    0.968
   766   8 O    1.844 --   765 C    1.573   767 N    0.168
   767   7 N    3.315 --   765 C    1.314   773 H    0.897   772 H    0.888
                           766 O    0.168
   768   1 H    0.970 --   760 N    0.908
   769   1 H    1.004 --   761 C    0.962
   770   1 H    1.013 --   764 C    0.973
   771   1 H    1.004 --   764 C    0.966
   772   1 H    0.957 --   767 N    0.888
   773   1 H    0.962 --   767 N    0.897
   774   7 N    2.938 --   775 C    0.994   796 H    0.937   781 H    0.923
   775   6 C    3.981 --   776 C    0.996   774 N    0.994   782 H    0.969
                           778 C    0.933
   776   6 C    3.813 --   777 O    1.780   775 C    0.996   797 H    0.964
   777   8 O    1.998 --   776 C    1.780
   778   6 C    3.925 --   780 C    0.998   783 H    0.964   779 O    0.951
                           775 C    0.933
   779   8 O    1.901 --   778 C    0.951   784 H    0.826
   780   6 C    3.995 --   778 C    0.998   786 H    0.984   785 H    0.980
                           787 H    0.978
   781   1 H    0.980 --   774 N    0.923
   782   1 H    1.010 --   775 C    0.969
   783   1 H    1.015 --   778 C    0.964
   784   1 H    0.893 --   779 O    0.826
   785   1 H    1.014 --   780 C    0.980
   786   1 H    1.001 --   780 C    0.984
   787   1 H    1.010 --   780 C    0.978
   788   1 H    0.949 --   700 N    0.935
   789   1 H    1.011 --   718 C    0.962
   790   1 H    0.955 --   723 N    0.941
   791   1 H    1.011 --   725 C    0.962
   792   1 H    0.947 --   737 N    0.933
   793   1 H    1.008 --   755 C    0.961
   794   1 H    0.957 --   760 N    0.943
   795   1 H    1.009 --   762 C    0.962
   796   1 H    0.952 --   774 N    0.937
   797   1 H    1.009 --   776 C    0.964
   798   1 H    0.947 --   101 N    0.934
   799   1 H    0.961 --   168 N    0.945
   800   1 H    0.961 --   190 N    0.945
   801   1 H    1.000 --   229 C    0.956
   802   1 H    1.006 --   309 C    0.960
   803   1 H    1.007 --   439 C    0.961
   804   1 H    1.010 --   471 C    0.961
   805   1 H    0.949 --   485 N    0.938
   806   1 H    1.012 --   487 C    0.963
   807   1 H    0.966 --   499 N    0.948
   808   1 H    0.951 --   521 N    0.940
   809   1 H    1.011 --   523 C    0.963
   810   1 H    0.966 --   535 N    0.948
   811   1 H    0.947 --   557 N    0.934
   812   1 H    1.014 --   559 C    0.962
   813   1 H    0.952 --   568 N    0.941
   814   1 H    0.950 --   618 N    0.931
   815   1 H    1.011 --   620 C    0.964
   816   1 H    0.954 --   634 N    0.943
   817   1 H    0.950 --   684 N    0.932
   818   1 H    1.017 --   686 C    0.964
 ---------------------------------------------------------------------------

Topologies differ in total number of bonds
Writing topology from bond orders to xtbtopo.mol

 dipole moment from electron density (au)
     X       Y       Z   
 -87.2021 -16.9426 -73.7626  total (Debye):  293.483


           -------------------------------------------------
          | TOTAL ENERGY            -1437.458339261227 Eh   |
          | GRADIENT NORM               1.325621793261 Eh/α |
          | HOMO-LUMO GAP               0.781706725315 eV   |
           -------------------------------------------------

------------------------------------------------------------------------
 * finished run on 2022/05/30 at 00:10:59.967     
------------------------------------------------------------------------
 total:
 * wall-time:     0 d,  0 h,  1 min,  1.982 sec
 *  cpu-time:     0 d,  0 h,  1 min,  1.884 sec
 * ratio c/w:     0.998 speedup
 SCF:
 * wall-time:     0 d,  0 h,  0 min, 52.069 sec
 *  cpu-time:     0 d,  0 h,  0 min, 52.008 sec
 * ratio c/w:     0.999 speedup

