      -----------------------------------------------------------      
     |                   =====================                   |     
     |                           x T B                           |     
     |                   =====================                   |     
     |                         S. Grimme                         |     
     |          Mulliken Center for Theoretical Chemistry        |     
     |                    University of Bonn                     |     
      -----------------------------------------------------------      

   * xtb version 6.4.0 (d4b70c2) compiled by 'ehlert@majestix' on 2021-02-01

   xtb is free software: you can redistribute it and/or modify it under
   the terms of the GNU Lesser General Public License as published by
   the Free Software Foundation, either version 3 of the License, or
   (at your option) any later version.
   
   xtb is distributed in the hope that it will be useful,
   but WITHOUT ANY WARRANTY; without even the implied warranty of
   MERCHANTABILITY or FITNESS FOR A PARTICULAR PURPOSE.  See the
   GNU Lesser General Public License for more details.
   
   Cite this work as:
   * C. Bannwarth, E. Caldeweyher, S. Ehlert, A. Hansen, P. Pracht,
     J. Seibert, S. Spicher, S. Grimme, WIREs Comput. Mol. Sci., 2020,
     e01493. DOI: 10.1002/wcms.1493
   
   for GFN2-xTB:
   * C. Bannwarth, S. Ehlert and S. Grimme., J. Chem. Theory Comput., 2019,
     15, 1652-1671. DOI: 10.1021/acs.jctc.8b01176
   for GFN1-xTB:
   * S. Grimme, C. Bannwarth, P. Shushkov, J. Chem. Theory Comput., 2017,
     13, 1989-2009. DOI: 10.1021/acs.jctc.7b00118
   for GFN0-xTB:
   * P. Pracht, E. Caldeweyher, S. Ehlert, S. Grimme, ChemRxiv, 2019, preprint.
     DOI: 10.26434/chemrxiv.8326202.v1
   for GFN-FF:
   * S. Spicher and S. Grimme, Angew. Chem. Int. Ed., 2020, 59, 15665-15673.
     DOI: 10.1002/anie.202004239
   
   for DFT-D4:
   * E. Caldeweyher, C. Bannwarth and S. Grimme, J. Chem. Phys., 2017,
     147, 034112. DOI: 10.1063/1.4993215
   * E. Caldeweyher, S. Ehlert, A. Hansen, H. Neugebauer, S. Spicher,
     C. Bannwarth and S. Grimme, J. Chem. Phys., 2019, 150, 154122.
     DOI: 10.1063/1.5090222
   * E. Caldeweyher, J.-M. Mewes, S. Ehlert and S. Grimme, Phys. Chem. Chem. Phys.
     2020, 22, 8499-8512. DOI: 10.1039/D0CP00502A
   
   for sTDA-xTB:
   * S. Grimme and C. Bannwarth, J. Chem. Phys., 2016, 145, 054103.
     DOI: 10.1063/1.4959605
   
   in the mass-spec context:
   * V. Asgeirsson, C. Bauer and S. Grimme, Chem. Sci., 2017, 8, 4879.
     DOI: 10.1039/c7sc00601b
   * J. Koopman and S. Grimme, ACS Omega 2019, 4, 12, 15120-15133.
     DOI: 10.1021/acsomega.9b02011
   
   for metadynamics refer to:
   * S. Grimme, J. Chem. Theory Comput., 2019, 155, 2847-2862
     DOI: 10.1021/acs.jctc.9b00143
   
   with help from (in alphabetical order)
   P. Atkinson, C. Bannwarth, F. Bohle, G. Brandenburg, E. Caldeweyher
   M. Checinski, S. Dohm, S. Ehlert, S. Ehrlich, I. Gerasimov, J. Koopman
   C. Lavinge, S. Lehtola, F. März, M. Müller, F. Musil, H. Neugebauer
   J. Pisarek, P. Pracht, J. Seibert, P. Shushkov, S. Spicher, M. Stahn
   T. Strunk, J. Stückrath, T. Rose, and J. Unsleber
   
 * started run on 2022/05/30 at 00:09:57.566     

           -------------------------------------------------
          |                Calculation Setup                |
           -------------------------------------------------

          program call               : /home/amax/XTB/xtb-6.4.0/bin/xtb xtb_tmp.xyz --chrg -3 --grad --gfn 1 --gbsa h2o --parallel 1
          hostname                   : amax
          coordinate file            : xtb_tmp.xyz
          omp threads                :                     1
          number of atoms            :                   720
          number of electrons        :                  2074
          charge                     :                    -3
          spin                       :                   0.0
          first test random number   :      0.18344382084567

   ID    Z sym.   atoms
    1    7 N      1, 8, 15, 29, 51, 58, 67, 83, 90, 101, 108, 115, 129, 154,
                  176, 204, 211, 218, 232, 254, 270, 277, 284, 298, 320, 336,
                  343, 350, 357, 364, 371, 378, 385, 394, 410, 417, 428, 435,
                  442, 456, 463, 472, 488, 495, 504, 520, 527, 538, 545, 552,
                  574, 581, 590, 606, 613, 622, 629, 636, 658, 665, 672
    2    6 C      2, 3, 5, 6, 16, 17, 19, 21, 30, 31, 33-39, 52, 53, 55, 56,
                  68, 69, 71-73, 84, 85, 91, 92, 94, 102, 103, 105, 106, 116,
                  117, 119, 121, 130, 131, 133-139, 155, 156, 158-164, 177,
                  178, 180-186, 205, 206, 208, 209, 219, 220, 222, 224, 233,
                  234, 236-242, 255, 256, 258-260, 271, 272, 274, 275, 285,
                  286, 288, 290, 299, 300, 302-308, 321, 322, 324-326, 337,
                  338, 344, 345, 347, 348, 358, 359, 365, 366, 368, 369, 379,
                  380, 382, 383, 395, 396, 398-400, 411, 412, 418, 419, 421,
                  429, 430, 432, 433, 443, 444, 446, 448, 457, 458, 460, 461,
                  473, 474, 476-478, 489, 490, 492, 493, 505, 506, 508-510,
                  521, 522, 528, 529, 531, 539, 540, 542, 543, 553, 554,
                  556-562, 575, 576, 578, 579, 591, 592, 594-596, 607, 608,
                  610, 611, 623, 624, 626, 627, 637, 638, 640-646, 659, 660,
                  662, 663, 673, 674, 676-682
    3    8 O      4, 7, 18, 20, 32, 40, 41, 54, 57, 70, 86, 93, 95, 104, 107,
                  118, 120, 132, 140, 141, 151, 157, 165, 166, 179, 187, 188,
                  198, 201, 207, 210, 221, 223, 235, 243, 244, 257, 273, 276,
                  287, 289, 301, 309, 310, 323, 339, 346, 349, 360, 367, 370,
                  381, 384, 397, 413, 420, 422, 431, 434, 445, 447, 459, 462,
                  475, 491, 494, 507, 523, 530, 532, 541, 544, 555, 563, 564,
                  577, 580, 593, 609, 612, 625, 628, 639, 647, 648, 661, 664,
                  675, 683, 684
    4    1 H      9-14, 22-28, 42-50, 59-66, 74-82, 87-89, 96-100, 109-114,
                  122-128, 142-150, 152, 153, 167-175, 189-197, 199, 200,
                  202, 203, 212-217, 225-231, 245-253, 261-269, 278-283,
                  291-297, 311-319, 327-335, 340-342, 351-356, 361-363,
                  372-377, 386-393, 401-409, 414-416, 423-427, 436-441,
                  449-455, 464-471, 479-487, 496-503, 511-519, 524-526,
                  533-537, 546-551, 565-573, 582-589, 597-605, 614-621,
                  630-635, 649-657, 666-671, 685-720

molecular fragmentation (1/2 indicates fragments):
111111111111111111111111111111111111111111111111112222222222222222222222
222222222222222222222222222222222222222222222222222222222222222222222222
222222222222222222222222222222222222222222222222222222222222222222222222
222222222222222222222222222222222222222222222222222222222222222222222222
222222222222222222222222222222222222222222222222222222222222222222222222
222222222222222222222222222222222222222222222222222222222222222222222222
222222222222222222222222222222222222222222222222222222222222222222222222
222222222222222222222222222222222222222222222222222222222222222222222222
222222222222222222222222222222222222222222222222222222222222222222222222
222222222222222222222222222222222222222222222122222222222222222222222222
# atoms in fragment 1/2:    51   669
 fragment masses (1/2) :      395.39     4882.10
CMA distance (Bohr)    :  12.973
constraining FC (au)   :  0.0500

           -------------------------------------------------
          |                 G F N 1 - x T B                 |
           -------------------------------------------------

        Reference                      10.1021/acs.jctc.7b00118
      * Hamiltonian:
        H0-scaling (s, p, d)           1.850000    2.250000    2.000000
        zeta-weighting                 0.000000
      * Dispersion:
        s8                             2.400000
        a1                             0.630000
        a2                             5.000000
        s9                             0.000000
      * Repulsion:
        kExp                           1.500000
        rExp                           1.000000
      * Coulomb:
        alpha                          2.000000
        third order                    atomic
        anisotropic                    false
      * Halogen bond correction:
        rad-scale                      1.300000
        damping                        0.440000

      * Solvation model:               GBSA
        Solvent                        h2o
        Parameter file                 internal GFN1-xTB/GBSA
        Dielectric constant                7.8500E+01
        Reference state                gsolv [1 M gas/solution]
        Free energy shift                  2.0755E-03 Eh       1.3024E+00 kcal/mol
        Temperature                        2.9815E+02 K
        Density                            9.9800E-01 kg/L
        Solvent mass                       1.8000E+01 g/mol
        Interaction kernel             Still
        Born radius scaling (c1)           1.5808E+00
        Born radii integrator          GBOBC
        Born offset                        1.3596E-02 a0       2.5692E-02 AA
        H-bond correction              true
        Ion screening                  false
        Surface tension                    1.0000E-05 Eh       1.5569E+01 dyn/cm
        Grid points                               230 per atom

          ...................................................
          :                      SETUP                      :
          :.................................................:
          :  # basis functions                2180          :
          :  # atomic orbitals                2180          :
          :  # shells                         1440          :
          :  # electrons                      2074          :
          :  # halogen bonds                     0          :
          :  max. iterations                   250          :
          :  Hamiltonian                  GFN1-xTB          :
          :  restarted?                      false          :
          :  GBSA solvation                   true          :
          :  PC potential                    false          :
          :  electronic temp.          300.0000000     K    :
          :  accuracy                    1.0000000          :
          :  -> integral cutoff          0.2500000E+02      :
          :  -> integral neglect         0.1000000E-07      :
          :  -> SCF convergence          0.1000000E-05 Eh   :
          :  -> wf. convergence          0.2000000E-04 e    :
          :  Broyden damping             0.4000000          :
          ...................................................

 iter      E             dE          RMSdq      gap      omega  full diag
   1  -1280.3680961 -0.128037E+04  0.828E+00    2.51       0.0  T
   2  -1285.5465989 -0.517850E+01  0.490E+00    1.99       1.0  T
   3  -1285.5340165  0.125824E-01  0.139E+00    1.41       1.0  T
   4  -1285.6907977 -0.156781E+00  0.149E-01    0.96       1.0  T
   5  -1285.7005915 -0.979388E-02  0.332E-02    1.08       1.0  T
   6  -1285.7010856 -0.494090E-03  0.794E-03    1.11       1.0  T
   7  -1285.7011095 -0.238926E-04  0.294E-03    1.12       1.3  T
   8  -1285.7011115 -0.193798E-05  0.844E-04    1.13       4.4  T
   9  -1285.7011116 -0.129803E-06  0.254E-04    1.13      14.7  T
  10  -1285.7011116 -0.900945E-08  0.619E-05    1.13      60.2  T
  11  -1285.7011116 -0.591399E-09  0.220E-05    1.13     169.1  T

   *** convergence criteria satisfied after 11 iterations ***

         #    Occupation            Energy/Eh            Energy/eV
      -------------------------------------------------------------
         1        2.0000           -0.8663838             -23.5755
       ...           ...                  ...                  ...
      1031        2.0000           -0.3888410             -10.5809
      1032        2.0000           -0.3876121             -10.5475
      1033        2.0000           -0.3824078             -10.4058
      1034        2.0000           -0.3811959             -10.3729
      1035        2.0000           -0.3744890             -10.1904
      1036        2.0000           -0.3734942             -10.1633
      1037        2.0000           -0.3690935             -10.0435 (HOMO)
      1038                         -0.3276637              -8.9162 (LUMO)
      1039                         -0.3266778              -8.8894
      1040                         -0.3254430              -8.8558
      1041                         -0.3239472              -8.8151
      1042                         -0.3187871              -8.6746
       ...                                ...                  ...
      2180                          0.9696188              26.3847
      -------------------------------------------------------------
                  HL-Gap            0.0414297 Eh            1.1274 eV
             Fermi-level           -0.3485536 Eh           -9.4846 eV

 SCC (total)                   0 d,  0 h,  0 min, 35.893 sec
 SCC setup                      ...        0 min,  0.107 sec (  0.297%)
 Dispersion                     ...        0 min,  0.047 sec (  0.131%)
 classical contributions        ...        0 min,  0.015 sec (  0.041%)
 integral evaluation            ...        0 min,  8.108 sec ( 22.590%)
 iterations                     ...        0 min, 22.072 sec ( 61.494%)
 molecular gradient             ...        0 min,  5.281 sec ( 14.712%)
 printout                       ...        0 min,  0.264 sec (  0.735%)

         :::::::::::::::::::::::::::::::::::::::::::::::::::::
         ::                     SUMMARY                     ::
         :::::::::::::::::::::::::::::::::::::::::::::::::::::
         :: total energy           -1272.506082010048 Eh    ::
         :: total w/o Gsasa/hb     -1272.479945437023 Eh    ::
         :: gradient norm              1.104894727875 Eh/a0 ::
         :: HOMO-LUMO gap              1.127360107644 eV    ::
         ::.................................................::
         :: SCC energy             -1285.701111601689 Eh    ::
         :: -> electrostatic           7.250653111834 Eh    ::
         :: -> Gsolv                  -1.287563207317 Eh    ::
         ::    -> Gborn               -1.261426634292 Eh    ::
         ::    -> Gsasa                0.101073564202 Eh    ::
         ::    -> Ghb                 -0.129285607868 Eh    ::
         ::    -> Gshift               0.002075470640 Eh    ::
         :: repulsion energy          13.995404580094 Eh    ::
         :: dispersion energy         -0.800374988453 Eh    ::
         :: halogen bond corr.         0.000000000000 Eh    ::
         :: add. restraining           0.000000000000 Eh    ::
         :: total charge              -3.000000000313 e     ::
         :::::::::::::::::::::::::::::::::::::::::::::::::::::

           -------------------------------------------------
          |                Property Printout                |
           -------------------------------------------------

    * Orbital Energies and Occupations

         #    Occupation            Energy/Eh            Energy/eV
      -------------------------------------------------------------
         1        2.0000           -0.8663838             -23.5755
       ...           ...                  ...                  ...
      1025        2.0000           -0.3940442             -10.7225
      1026        2.0000           -0.3939006             -10.7186
      1027        2.0000           -0.3931429             -10.6980
      1028        2.0000           -0.3923160             -10.6755
      1029        2.0000           -0.3921766             -10.6717
      1030        2.0000           -0.3908855             -10.6365
      1031        2.0000           -0.3888410             -10.5809
      1032        2.0000           -0.3876121             -10.5475
      1033        2.0000           -0.3824078             -10.4058
      1034        2.0000           -0.3811959             -10.3729
      1035        2.0000           -0.3744890             -10.1904
      1036        2.0000           -0.3734942             -10.1633
      1037        2.0000           -0.3690935             -10.0435 (HOMO)
      1038                         -0.3276637              -8.9162 (LUMO)
      1039                         -0.3266778              -8.8894
      1040                         -0.3254430              -8.8558
      1041                         -0.3239472              -8.8151
      1042                         -0.3187871              -8.6746
      1043                         -0.3171566              -8.6303
      1044                         -0.3091512              -8.4124
      1045                         -0.3090041              -8.4084
      1046                         -0.3061876              -8.3318
      1047                         -0.3034155              -8.2564
      1048                         -0.3027656              -8.2387
       ...                                ...                  ...
      2180                          0.9696188              26.3847
      -------------------------------------------------------------
                  HL-Gap            0.0414297 Eh            1.1274 eV
             Fermi-level           -0.3485536 Eh           -9.4846 eV

  Mulliken/CM5 charges         n(s)   n(p)   n(d)
     1N    -0.54600 -1.05468   1.439  4.107  0.000
     2C     0.10850  0.10704   1.034  2.858  0.000
     3C     0.46594  0.56986   0.996  2.538  0.000
     4O    -0.61849 -0.68043   1.730  4.888  0.000
     5C    -0.08629 -0.17652   1.046  3.040  0.000
     6C     0.48916  0.58327   0.991  2.520  0.000
     7O    -0.60924 -0.68285   1.724  4.885  0.000
     8N    -0.40023 -0.85680   1.423  3.977  0.000
     9H     0.22033  0.42552   0.780  0.000  0.000
    10H     0.04147  0.12189   0.959  0.000  0.000
    11H     0.04980  0.12303   0.950  0.000  0.000
    12H     0.04342  0.10829   0.957  0.000  0.000
    13H     0.26089  0.45017   0.739  0.000  0.000
    14H     0.25349  0.45151   0.747  0.000  0.000
    15N    -0.33129 -0.69312   1.432  3.900  0.000
    16C     0.07973  0.08693   1.041  2.880  0.000
    17C     0.47332  0.57873   0.989  2.537  0.000
    18O    -0.60578 -0.67585   1.728  4.878  0.000
    19C     0.22646  0.18357   1.017  2.756  0.000
    20O    -0.59478 -0.82425   1.711  4.884  0.000
    21C    -0.10476 -0.25228   1.020  3.085  0.000
    22H     0.25611  0.46482   0.744  0.000  0.000
    23H     0.05875  0.14918   0.941  0.000  0.000
    24H     0.01284  0.08413   0.987  0.000  0.000
    25H     0.36906  0.56132   0.631  0.000  0.000
    26H     0.03360  0.09131   0.966  0.000  0.000
    27H     0.02849  0.08693   0.972  0.000  0.000
    28H     0.04831  0.11386   0.952  0.000  0.000
    29N    -0.31464 -0.67374   1.430  3.885  0.000
    30C     0.08661  0.08611   1.048  2.866  0.000
    31C     0.57764  0.64067   0.965  2.458  0.000
    32O    -0.66883 -0.75459   1.728  4.940  0.000
    33C    -0.04498 -0.14197   1.038  3.007  0.000
    34C    -0.00896 -0.02404   1.084  2.925  0.000
    35C    -0.03630 -0.09008   1.063  2.974  0.000
    36C    -0.03297 -0.08809   1.061  2.972  0.000
    37C    -0.07497 -0.12794   1.056  3.019  0.000
    38C    -0.09224 -0.14610   1.064  3.029  0.000
    39C     0.25176  0.26053   1.021  2.727  0.000
    40O    -0.55614 -0.76781   1.708  4.848  0.000
    41O    -0.70000 -0.76004   1.744  4.956  0.000
    42H     0.25136  0.45636   0.749  0.000  0.000
    43H     0.04401  0.12510   0.956  0.000  0.000
    44H     0.03776  0.10116   0.962  0.000  0.000
    45H     0.04148  0.10093   0.959  0.000  0.000
    46H     0.02752  0.09193   0.972  0.000  0.000
    47H     0.03154  0.08976   0.968  0.000  0.000
    48H     0.03928  0.10152   0.961  0.000  0.000
    49H     0.04187  0.10398   0.958  0.000  0.000
    50H     0.38029  0.57196   0.620  0.000  0.000
    51N    -0.20279 -0.80577   1.459  3.743  0.000
    52C     0.08342  0.07778   1.043  2.874  0.000
    53C     0.47583  0.57866   0.983  2.541  0.000
    54O    -0.60195 -0.66981   1.724  4.878  0.000
    55C    -0.09123 -0.18155   1.046  3.046  0.000
    56C     0.48235  0.57500   0.988  2.530  0.000
    57O    -0.63547 -0.70721   1.728  4.907  0.000
    58N    -0.40423 -0.87117   1.432  3.972  0.000
    59H     0.28042  0.48086   0.720  0.000  0.000
    60H     0.27266  0.46609   0.727  0.000  0.000
    61H     0.27819  0.47876   0.722  0.000  0.000
    62H     0.07814  0.16403   0.922  0.000  0.000
    63H     0.07752  0.14821   0.922  0.000  0.000
    64H     0.07448  0.14024   0.926  0.000  0.000
    65H     0.27906  0.49409   0.721  0.000  0.000
    66H     0.26973  0.47494   0.730  0.000  0.000
    67N    -0.31527 -0.67888   1.429  3.887  0.000
    68C     0.08730  0.09116   1.043  2.870  0.000
    69C     0.46659  0.57113   0.995  2.539  0.000
    70O    -0.61366 -0.68051   1.728  4.886  0.000
    71C    -0.00061 -0.06896   1.058  2.943  0.000
    72C    -0.08600 -0.23569   1.015  3.071  0.000
    73C    -0.08373 -0.23272   1.011  3.073  0.000
    74H     0.26061  0.46637   0.739  0.000  0.000
    75H     0.05492  0.13919   0.945  0.000  0.000
    76H     0.02879  0.09328   0.971  0.000  0.000
    77H     0.04424  0.09769   0.956  0.000  0.000
    78H     0.03152  0.08857   0.968  0.000  0.000
    79H     0.03357  0.08780   0.966  0.000  0.000
    80H     0.03917  0.09231   0.961  0.000  0.000
    81H     0.03385  0.08828   0.966  0.000  0.000
    82H     0.03620  0.09361   0.964  0.000  0.000
    83N    -0.32800 -0.69440   1.432  3.896  0.000
    84C     0.06417  0.02719   1.016  2.920  0.000
    85C     0.47467  0.57581   0.993  2.533  0.000
    86O    -0.59478 -0.67390   1.728  4.867  0.000
    87H     0.27428  0.48585   0.726  0.000  0.000
    88H     0.08320  0.16527   0.917  0.000  0.000
    89H     0.06079  0.13664   0.939  0.000  0.000
    90N    -0.31564 -0.67030   1.425  3.891  0.000
    91C     0.08851  0.09346   1.039  2.872  0.000
    92C     0.46587  0.57038   0.994  2.540  0.000
    93O    -0.60182 -0.67461   1.728  4.873  0.000
    94C     0.20569  0.12668   0.990  2.805  0.000
    95O    -0.60120 -0.81997   1.701  4.900  0.000
    96H     0.24802  0.44912   0.752  0.000  0.000
    97H     0.05290  0.13743   0.947  0.000  0.000
    98H     0.03614  0.10969   0.964  0.000  0.000
    99H     0.03930  0.11271   0.961  0.000  0.000
   100H     0.35591  0.53303   0.644  0.000  0.000
   101N    -0.32261 -0.68146   1.430  3.893  0.000
   102C     0.10894  0.11354   1.037  2.854  0.000
   103C     0.46965  0.57409   0.991  2.539  0.000
   104O    -0.60629 -0.66874   1.726  4.881  0.000
   105C    -0.09038 -0.17980   1.049  3.042  0.000
   106C     0.48533  0.57790   0.994  2.521  0.000
   107O    -0.60543 -0.68135   1.725  4.880  0.000
   108N    -0.38750 -0.84316   1.425  3.962  0.000
   109H     0.26385  0.47977   0.736  0.000  0.000
   110H     0.06158  0.14721   0.938  0.000  0.000
   111H     0.05993  0.13363   0.940  0.000  0.000
   112H     0.06012  0.12491   0.940  0.000  0.000
   113H     0.26067  0.46067   0.739  0.000  0.000
   114H     0.25074  0.44908   0.749  0.000  0.000
   115N    -0.31746 -0.67710   1.428  3.890  0.000
   116C     0.08275  0.09003   1.041  2.876  0.000
   117C     0.46416  0.56947   0.987  2.549  0.000
   118O    -0.59885 -0.66545   1.727  4.871  0.000
   119C     0.22339  0.18140   1.021  2.756  0.000
   120O    -0.60244 -0.80435   1.708  4.894  0.000
   121C    -0.09929 -0.24627   1.018  3.081  0.000
   122H     0.26035  0.46699   0.740  0.000  0.000
   123H     0.05504  0.14296   0.945  0.000  0.000
   124H     0.02773  0.09769   0.972  0.000  0.000
   125H     0.36470  0.53071   0.635  0.000  0.000
   126H     0.04240  0.09865   0.958  0.000  0.000
   127H     0.03858  0.09647   0.961  0.000  0.000
   128H     0.03236  0.09185   0.968  0.000  0.000
   129N    -0.33407 -0.69044   1.435  3.899  0.000
   130C     0.08540  0.08493   1.047  2.868  0.000
   131C     0.56814  0.63385   0.957  2.475  0.000
   132O    -0.73286 -0.77117   1.748  4.985  0.000
   133C    -0.04949 -0.14590   1.032  3.017  0.000
   134C    -0.00944 -0.02428   1.082  2.928  0.000
   135C    -0.03933 -0.09293   1.061  2.978  0.000
   136C    -0.03373 -0.08819   1.060  2.974  0.000
   137C    -0.07940 -0.13220   1.056  3.023  0.000
   138C    -0.09023 -0.14311   1.059  3.031  0.000
   139C     0.25044  0.26088   1.019  2.731  0.000
   140O    -0.54416 -0.74974   1.702  4.842  0.000
   141O    -0.72374 -0.76657   1.744  4.980  0.000
   142H     0.25194  0.46334   0.748  0.000  0.000
   143H     0.03760  0.11819   0.962  0.000  0.000
   144H     0.03542  0.09764   0.965  0.000  0.000
   145H     0.04055  0.10088   0.959  0.000  0.000
   146H     0.03350  0.09789   0.966  0.000  0.000
   147H     0.03546  0.09330   0.965  0.000  0.000
   148H     0.04210  0.10486   0.958  0.000  0.000
   149H     0.04517  0.10457   0.955  0.000  0.000
   150H     0.38113  0.54997   0.619  0.000  0.000
   151O    -0.73334 -1.21850   1.660  5.073  0.000
   152H     0.37596  0.62832   0.624  0.000  0.000
   153H     0.37535  0.62161   0.625  0.000  0.000
   154N    -0.53914 -1.04403   1.439  4.101  0.000
   155C     0.08052  0.07456   1.045  2.874  0.000
   156C     0.56682  0.63133   0.967  2.466  0.000
   157O    -0.71051 -0.75637   1.740  4.970  0.000
   158C    -0.04942 -0.14716   1.038  3.012  0.000
   159C    -0.00657 -0.02209   1.086  2.920  0.000
   160C    -0.03747 -0.09197   1.062  2.975  0.000
   161C    -0.03640 -0.09048   1.061  2.976  0.000
   162C    -0.07828 -0.12954   1.054  3.025  0.000
   163C    -0.09741 -0.15003   1.063  3.034  0.000
   164C     0.24925  0.26002   1.018  2.733  0.000
   165O    -0.56588 -0.75838   1.707  4.859  0.000
   166O    -0.72835 -0.78451   1.746  4.982  0.000
   167H     0.19836  0.38508   0.802  0.000  0.000
   168H     0.01684  0.09054   0.983  0.000  0.000
   169H     0.03226  0.09498   0.968  0.000  0.000
   170H     0.03132  0.09061   0.969  0.000  0.000
   171H     0.03047  0.09021   0.970  0.000  0.000
   172H     0.03367  0.09124   0.966  0.000  0.000
   173H     0.03875  0.09837   0.961  0.000  0.000
   174H     0.04625  0.10495   0.954  0.000  0.000
   175H     0.38363  0.55039   0.616  0.000  0.000
   176N    -0.53702 -1.04222   1.439  4.098  0.000
   177C     0.08253  0.07588   1.047  2.870  0.000
   178C     0.56813  0.63125   0.969  2.463  0.000
   179O    -0.69496 -0.76046   1.734  4.961  0.000
   180C    -0.05616 -0.15371   1.038  3.018  0.000
   181C    -0.00473 -0.02040   1.086  2.919  0.000
   182C    -0.04039 -0.09456   1.063  2.977  0.000
   183C    -0.03164 -0.08673   1.061  2.971  0.000
   184C    -0.07965 -0.13076   1.054  3.026  0.000
   185C    -0.09410 -0.14718   1.063  3.032  0.000
   186C     0.24869  0.25938   1.018  2.733  0.000
   187O    -0.56513 -0.75776   1.707  4.858  0.000
   188O    -0.71141 -0.77134   1.745  4.966  0.000
   189H     0.20205  0.38835   0.798  0.000  0.000
   190H     0.02399  0.09879   0.976  0.000  0.000
   191H     0.03140  0.09149   0.969  0.000  0.000
   192H     0.03324  0.09248   0.967  0.000  0.000
   193H     0.03543  0.09437   0.965  0.000  0.000
   194H     0.03385  0.09202   0.966  0.000  0.000
   195H     0.04067  0.09986   0.959  0.000  0.000
   196H     0.04269  0.10185   0.957  0.000  0.000
   197H     0.38100  0.54786   0.619  0.000  0.000
   198O    -0.73385 -1.21897   1.660  5.074  0.000
   199H     0.37525  0.62763   0.625  0.000  0.000
   200H     0.37482  0.62113   0.625  0.000  0.000
   201O    -0.72594 -1.18563   1.648  5.078  0.000
   202H     0.36074  0.59335   0.639  0.000  0.000
   203H     0.35939  0.58655   0.641  0.000  0.000
   204N    -0.53572 -1.04196   1.439  4.097  0.000
   205C     0.10352  0.10206   1.036  2.861  0.000
   206C     0.46287  0.56739   0.995  2.542  0.000
   207O    -0.63242 -0.67460   1.739  4.894  0.000
   208C    -0.09015 -0.18059   1.048  3.043  0.000
   209C     0.48903  0.58305   0.990  2.521  0.000
   210O    -0.59754 -0.67115   1.724  4.874  0.000
   211N    -0.40591 -0.86098   1.424  3.982  0.000
   212H     0.20848  0.39747   0.792  0.000  0.000
   213H     0.04917  0.12955   0.951  0.000  0.000
   214H     0.04401  0.11233   0.956  0.000  0.000
   215H     0.05380  0.11861   0.946  0.000  0.000
   216H     0.27131  0.45977   0.729  0.000  0.000
   217H     0.25863  0.44594   0.741  0.000  0.000
   218N    -0.33440 -0.69560   1.431  3.904  0.000
   219C     0.08145  0.08905   1.039  2.879  0.000
   220C     0.47330  0.57892   0.989  2.538  0.000
   221O    -0.59530 -0.66511   1.727  4.868  0.000
   222C     0.22143  0.17991   1.018  2.761  0.000
   223O    -0.60232 -0.80858   1.708  4.895  0.000
   224C    -0.10795 -0.25535   1.021  3.087  0.000
   225H     0.25934  0.46804   0.741  0.000  0.000
   226H     0.05327  0.13557   0.947  0.000  0.000
   227H     0.02485  0.09461   0.975  0.000  0.000
   228H     0.36518  0.53205   0.635  0.000  0.000
   229H     0.03687  0.09377   0.963  0.000  0.000
   230H     0.03553  0.09392   0.964  0.000  0.000
   231H     0.05094  0.11638   0.949  0.000  0.000
   232N    -0.32019 -0.67652   1.429  3.892  0.000
   233C     0.08319  0.08277   1.049  2.868  0.000
   234C     0.57344  0.63692   0.964  2.463  0.000
   235O    -0.68373 -0.74766   1.734  4.950  0.000
   236C    -0.05480 -0.15130   1.039  3.016  0.000
   237C    -0.01451 -0.02912   1.083  2.932  0.000
   238C    -0.04398 -0.09732   1.061  2.983  0.000
   239C    -0.03122 -0.08557   1.060  2.971  0.000
   240C    -0.08066 -0.13289   1.056  3.025  0.000
   241C    -0.08396 -0.13716   1.063  3.021  0.000
   242C     0.25387  0.26399   1.020  2.726  0.000
   243O    -0.56585 -0.76195   1.708  4.858  0.000
   244O    -0.70048 -0.76031   1.743  4.957  0.000
   245H     0.24765  0.44054   0.752  0.000  0.000
   246H     0.04944  0.13051   0.951  0.000  0.000
   247H     0.03971  0.09985   0.960  0.000  0.000
   248H     0.04769  0.10682   0.952  0.000  0.000
   249H     0.02821  0.08765   0.972  0.000  0.000
   250H     0.03274  0.09088   0.967  0.000  0.000
   251H     0.04121  0.10125   0.959  0.000  0.000
   252H     0.04177  0.10524   0.958  0.000  0.000
   253H     0.37465  0.56476   0.625  0.000  0.000
   254N    -0.52585 -1.03831   1.440  4.086  0.000
   255C     0.09201  0.08351   1.037  2.871  0.000
   256C     0.38337  0.35616   1.060  2.556  0.000
   257O    -0.53916 -0.59598   1.748  4.791  0.000
   258C    -0.00721 -0.07733   1.058  2.949  0.000
   259C    -0.09343 -0.24426   1.015  3.079  0.000
   260C    -0.08169 -0.23282   1.015  3.067  0.000
   261H     0.21183  0.39949   0.788  0.000  0.000
   262H     0.03320  0.10331   0.967  0.000  0.000
   263H     0.02469  0.08832   0.975  0.000  0.000
   264H     0.03613  0.08953   0.964  0.000  0.000
   265H     0.02775  0.08325   0.972  0.000  0.000
   266H     0.03386  0.08760   0.966  0.000  0.000
   267H     0.02798  0.08208   0.972  0.000  0.000
   268H     0.03500  0.09226   0.965  0.000  0.000
   269H     0.04093  0.09988   0.959  0.000  0.000
   270N    -0.54134 -1.04990   1.439  4.103  0.000
   271C     0.10414  0.10252   1.034  2.862  0.000
   272C     0.46659  0.57044   0.996  2.538  0.000
   273O    -0.60594 -0.66787   1.730  4.876  0.000
   274C    -0.09370 -0.18363   1.047  3.047  0.000
   275C     0.48620  0.58123   0.989  2.525  0.000
   276O    -0.63980 -0.68317   1.735  4.905  0.000
   277N    -0.40815 -0.86295   1.423  3.985  0.000
   278H     0.22337  0.42855   0.777  0.000  0.000
   279H     0.03633  0.11115   0.964  0.000  0.000
   280H     0.05362  0.12681   0.946  0.000  0.000
   281H     0.04240  0.10608   0.958  0.000  0.000
   282H     0.26088  0.44947   0.739  0.000  0.000
   283H     0.25179  0.44975   0.748  0.000  0.000
   284N    -0.33354 -0.69382   1.430  3.904  0.000
   285C     0.07729  0.08457   1.041  2.881  0.000
   286C     0.46873  0.57477   0.989  2.542  0.000
   287O    -0.62760 -0.67538   1.736  4.891  0.000
   288C     0.22603  0.18323   1.017  2.757  0.000
   289O    -0.59160 -0.82106   1.711  4.881  0.000
   290C    -0.10870 -0.25502   1.018  3.091  0.000
   291H     0.25089  0.44719   0.749  0.000  0.000
   292H     0.06522  0.15564   0.935  0.000  0.000
   293H     0.01642  0.08768   0.984  0.000  0.000
   294H     0.37083  0.56308   0.629  0.000  0.000
   295H     0.03781  0.09484   0.962  0.000  0.000
   296H     0.03104  0.08689   0.969  0.000  0.000
   297H     0.04322  0.10196   0.957  0.000  0.000
   298N    -0.31859 -0.67711   1.430  3.889  0.000
   299C     0.08598  0.08617   1.046  2.868  0.000
   300C     0.57779  0.64116   0.965  2.457  0.000
   301O    -0.66735 -0.75299   1.728  4.939  0.000
   302C    -0.04679 -0.14355   1.038  3.009  0.000
   303C    -0.00891 -0.02361   1.085  2.924  0.000
   304C    -0.03451 -0.08822   1.063  2.971  0.000
   305C    -0.03618 -0.09021   1.061  2.975  0.000
   306C    -0.07190 -0.12482   1.056  3.015  0.000
   307C    -0.09312 -0.14615   1.063  3.030  0.000
   308C     0.24903  0.25793   1.020  2.731  0.000
   309O    -0.54349 -0.75402   1.706  4.838  0.000
   310O    -0.71012 -0.76785   1.745  4.966  0.000
   311H     0.25425  0.45925   0.746  0.000  0.000
   312H     0.04524  0.12523   0.955  0.000  0.000
   313H     0.04070  0.10409   0.959  0.000  0.000
   314H     0.04247  0.10174   0.958  0.000  0.000
   315H     0.03144  0.09585   0.969  0.000  0.000
   316H     0.03522  0.09280   0.965  0.000  0.000
   317H     0.04241  0.10464   0.958  0.000  0.000
   318H     0.04765  0.10675   0.952  0.000  0.000
   319H     0.37957  0.54818   0.620  0.000  0.000
   320N    -0.53602 -1.04734   1.441  4.095  0.000
   321C     0.08586  0.08466   1.039  2.875  0.000
   322C     0.46576  0.57039   0.998  2.536  0.000
   323O    -0.62305 -0.66769   1.741  4.882  0.000
   324C    -0.00993 -0.07953   1.057  2.953  0.000
   325C    -0.09163 -0.24216   1.014  3.078  0.000
   326C    -0.09399 -0.24484   1.017  3.077  0.000
   327H     0.21426  0.40205   0.786  0.000  0.000
   328H     0.02856  0.10374   0.971  0.000  0.000
   329H     0.02781  0.09157   0.972  0.000  0.000
   330H     0.03569  0.08913   0.964  0.000  0.000
   331H     0.02694  0.08388   0.973  0.000  0.000
   332H     0.03057  0.08465   0.969  0.000  0.000
   333H     0.03355  0.08747   0.966  0.000  0.000
   334H     0.03482  0.08869   0.965  0.000  0.000
   335H     0.04171  0.09865   0.958  0.000  0.000
   336N    -0.33542 -0.70157   1.425  3.911  0.000
   337C     0.06433  0.02088   1.017  2.919  0.000
   338C     0.40023  0.37038   1.054  2.545  0.000
   339O    -0.51033 -0.59448   1.738  4.772  0.000
   340H     0.25998  0.45131   0.740  0.000  0.000
   341H     0.10647  0.18838   0.894  0.000  0.000
   342H     0.06568  0.14131   0.934  0.000  0.000
   343N    -0.53009 -1.03864   1.437  4.093  0.000
   344C     0.10849  0.09981   1.035  2.857  0.000
   345C     0.38263  0.35614   1.057  2.560  0.000
   346O    -0.54159 -0.59512   1.746  4.795  0.000
   347C    -0.09511 -0.18618   1.049  3.046  0.000
   348C     0.48668  0.58083   0.989  2.524  0.000
   349O    -0.59281 -0.66614   1.723  4.870  0.000
   350N    -0.39402 -0.85303   1.422  3.972  0.000
   351H     0.21052  0.40213   0.789  0.000  0.000
   352H     0.05678  0.13305   0.943  0.000  0.000
   353H     0.05269  0.11768   0.947  0.000  0.000
   354H     0.06869  0.12988   0.931  0.000  0.000
   355H     0.26648  0.46772   0.734  0.000  0.000
   356H     0.24501  0.43552   0.755  0.000  0.000
   357N    -0.53029 -1.04265   1.442  4.089  0.000
   358C     0.06342  0.01321   1.014  2.922  0.000
   359C     0.38088  0.34824   1.061  2.558  0.000
   360O    -0.51107 -0.60697   1.737  4.774  0.000
   361H     0.22776  0.41144   0.772  0.000  0.000
   362H     0.07728  0.14835   0.923  0.000  0.000
   363H     0.04337  0.11606   0.957  0.000  0.000
   364N    -0.54031 -1.05068   1.439  4.101  0.000
   365C     0.10768  0.09886   1.034  2.858  0.000
   366C     0.38068  0.35394   1.058  2.561  0.000
   367O    -0.53334 -0.59334   1.744  4.789  0.000
   368C    -0.09507 -0.18589   1.048  3.047  0.000
   369C     0.48304  0.57790   0.989  2.528  0.000
   370O    -0.63229 -0.67701   1.734  4.898  0.000
   371N    -0.40163 -0.86083   1.423  3.979  0.000
   372H     0.22592  0.43370   0.774  0.000  0.000
   373H     0.04994  0.12069   0.950  0.000  0.000
   374H     0.05754  0.12733   0.942  0.000  0.000
   375H     0.05660  0.11703   0.943  0.000  0.000
   376H     0.25409  0.45510   0.746  0.000  0.000
   377H     0.24976  0.44946   0.750  0.000  0.000
   378N    -0.20823 -0.80913   1.461  3.747  0.000
   379C     0.07268  0.06670   1.046  2.881  0.000
   380C     0.46995  0.57258   0.983  2.547  0.000
   381O    -0.59184 -0.65970   1.723  4.868  0.000
   382C    -0.08998 -0.18030   1.046  3.044  0.000
   383C     0.47823  0.57155   0.986  2.536  0.000
   384O    -0.63105 -0.69002   1.731  4.900  0.000
   385N    -0.41129 -0.87290   1.430  3.981  0.000
   386H     0.28537  0.46682   0.715  0.000  0.000
   387H     0.28959  0.48011   0.710  0.000  0.000
   388H     0.29687  0.49703   0.703  0.000  0.000
   389H     0.08556  0.16392   0.914  0.000  0.000
   390H     0.08166  0.15232   0.918  0.000  0.000
   391H     0.07477  0.13997   0.925  0.000  0.000
   392H     0.27528  0.48883   0.725  0.000  0.000
   393H     0.26468  0.46950   0.735  0.000  0.000
   394N    -0.31575 -0.67794   1.428  3.887  0.000
   395C     0.08567  0.08963   1.044  2.871  0.000
   396C     0.46163  0.56678   0.993  2.546  0.000
   397O    -0.62684 -0.67014   1.738  4.889  0.000
   398C    -0.00463 -0.07250   1.058  2.947  0.000
   399C    -0.08688 -0.23674   1.016  3.071  0.000
   400C    -0.08937 -0.23914   1.014  3.076  0.000
   401H     0.26391  0.45816   0.736  0.000  0.000
   402H     0.05797  0.14223   0.942  0.000  0.000
   403H     0.03520  0.09895   0.965  0.000  0.000
   404H     0.04317  0.09575   0.957  0.000  0.000
   405H     0.03293  0.08965   0.967  0.000  0.000
   406H     0.03578  0.09026   0.964  0.000  0.000
   407H     0.04230  0.09559   0.958  0.000  0.000
   408H     0.03726  0.09220   0.963  0.000  0.000
   409H     0.03538  0.09221   0.965  0.000  0.000
   410N    -0.33503 -0.70074   1.432  3.903  0.000
   411C     0.06663  0.03049   1.014  2.920  0.000
   412C     0.47338  0.57590   0.991  2.535  0.000
   413O    -0.61919 -0.66612   1.737  4.882  0.000
   414H     0.27127  0.48284   0.729  0.000  0.000
   415H     0.07864  0.16069   0.921  0.000  0.000
   416H     0.05667  0.13166   0.943  0.000  0.000
   417N    -0.32138 -0.67509   1.423  3.898  0.000
   418C     0.08442  0.08935   1.040  2.876  0.000
   419C     0.46698  0.57147   0.994  2.539  0.000
   420O    -0.59314 -0.66591   1.728  4.865  0.000
   421C     0.20378  0.12493   0.990  2.806  0.000
   422O    -0.60159 -0.81324   1.699  4.902  0.000
   423H     0.24440  0.44547   0.756  0.000  0.000
   424H     0.06272  0.14429   0.937  0.000  0.000
   425H     0.03851  0.11179   0.961  0.000  0.000
   426H     0.03217  0.10176   0.968  0.000  0.000
   427H     0.36912  0.53568   0.631  0.000  0.000
   428N    -0.31478 -0.67161   1.426  3.889  0.000
   429C     0.10512  0.10967   1.039  2.856  0.000
   430C     0.46790  0.57265   0.991  2.541  0.000
   431O    -0.61029 -0.65592   1.732  4.878  0.000
   432C    -0.09869 -0.18811   1.051  3.048  0.000
   433C     0.48460  0.57706   0.994  2.522  0.000
   434O    -0.59351 -0.66939   1.724  4.869  0.000
   435N    -0.39749 -0.85080   1.426  3.971  0.000
   436H     0.25518  0.45197   0.745  0.000  0.000
   437H     0.07316  0.15879   0.927  0.000  0.000
   438H     0.06228  0.12778   0.938  0.000  0.000
   439H     0.07522  0.13909   0.925  0.000  0.000
   440H     0.26852  0.46773   0.731  0.000  0.000
   441H     0.25767  0.44560   0.742  0.000  0.000
   442N    -0.31903 -0.67942   1.426  3.893  0.000
   443C     0.08348  0.08338   1.041  2.876  0.000
   444C     0.39445  0.36922   1.056  2.550  0.000
   445O    -0.49427 -0.57497   1.736  4.758  0.000
   446C     0.22413  0.18127   1.023  2.753  0.000
   447O    -0.59137 -0.80005   1.708  4.884  0.000
   448C    -0.10072 -0.24772   1.020  3.081  0.000
   449H     0.26473  0.47159   0.735  0.000  0.000
   450H     0.07110  0.14895   0.929  0.000  0.000
   451H     0.04068  0.10840   0.959  0.000  0.000
   452H     0.37060  0.53694   0.629  0.000  0.000
   453H     0.05128  0.10737   0.949  0.000  0.000
   454H     0.04372  0.09803   0.956  0.000  0.000
   455H     0.04084  0.10028   0.959  0.000  0.000
   456N    -0.19888 -0.80142   1.459  3.740  0.000
   457C     0.08367  0.07796   1.042  2.874  0.000
   458C     0.47541  0.57808   0.984  2.541  0.000
   459O    -0.59207 -0.65981   1.724  4.868  0.000
   460C    -0.10362 -0.19363   1.048  3.056  0.000
   461C     0.48635  0.58046   0.985  2.529  0.000
   462O    -0.61456 -0.66060   1.733  4.882  0.000
   463N    -0.41621 -0.86767   1.425  3.992  0.000
   464H     0.28614  0.48644   0.714  0.000  0.000
   465H     0.27570  0.46913   0.724  0.000  0.000
   466H     0.27892  0.47930   0.721  0.000  0.000
   467H     0.08497  0.16431   0.915  0.000  0.000
   468H     0.07696  0.14538   0.923  0.000  0.000
   469H     0.08297  0.14644   0.917  0.000  0.000
   470H     0.28216  0.46963   0.718  0.000  0.000
   471H     0.26841  0.45437   0.732  0.000  0.000
   472N    -0.31236 -0.67511   1.428  3.884  0.000
   473C     0.08848  0.08523   1.042  2.870  0.000
   474C     0.38894  0.36235   1.060  2.551  0.000
   475O    -0.51738 -0.57522   1.745  4.772  0.000
   476C    -0.00444 -0.07280   1.060  2.945  0.000
   477C    -0.09716 -0.24707   1.019  3.078  0.000
   478C    -0.08612 -0.23595   1.014  3.073  0.000
   479H     0.26686  0.46090   0.733  0.000  0.000
   480H     0.06259  0.14183   0.937  0.000  0.000
   481H     0.03949  0.10312   0.961  0.000  0.000
   482H     0.04854  0.10098   0.951  0.000  0.000
   483H     0.04070  0.09574   0.959  0.000  0.000
   484H     0.04034  0.09412   0.960  0.000  0.000
   485H     0.04317  0.09648   0.957  0.000  0.000
   486H     0.03709  0.09203   0.963  0.000  0.000
   487H     0.03844  0.09576   0.962  0.000  0.000
   488N    -0.21345 -0.81062   1.462  3.751  0.000
   489C     0.08006  0.07435   1.044  2.876  0.000
   490C     0.47123  0.57440   0.982  2.546  0.000
   491O    -0.60825 -0.65902   1.730  4.878  0.000
   492C    -0.10423 -0.19455   1.049  3.055  0.000
   493C     0.48002  0.57259   0.989  2.531  0.000
   494O    -0.62242 -0.69410   1.728  4.895  0.000
   495N    -0.40211 -0.86537   1.430  3.972  0.000
   496H     0.29302  0.48863   0.707  0.000  0.000
   497H     0.29205  0.48053   0.708  0.000  0.000
   498H     0.27994  0.45977   0.720  0.000  0.000
   499H     0.08976  0.17557   0.910  0.000  0.000
   500H     0.07999  0.14497   0.920  0.000  0.000
   501H     0.08868  0.15389   0.911  0.000  0.000
   502H     0.29015  0.50459   0.710  0.000  0.000
   503H     0.26613  0.45336   0.734  0.000  0.000
   504N    -0.31627 -0.67957   1.428  3.888  0.000
   505C     0.08332  0.08727   1.044  2.873  0.000
   506C     0.46851  0.57299   0.995  2.536  0.000
   507O    -0.59811 -0.66493   1.727  4.871  0.000
   508C    -0.00152 -0.06950   1.058  2.943  0.000
   509C    -0.09973 -0.24868   1.018  3.082  0.000
   510C    -0.08801 -0.23641   1.011  3.077  0.000
   511H     0.26431  0.47007   0.736  0.000  0.000
   512H     0.05865  0.13993   0.941  0.000  0.000
   513H     0.03510  0.09945   0.965  0.000  0.000
   514H     0.04915  0.10134   0.951  0.000  0.000
   515H     0.03959  0.09605   0.960  0.000  0.000
   516H     0.03708  0.09044   0.963  0.000  0.000
   517H     0.04289  0.09537   0.957  0.000  0.000
   518H     0.03560  0.08968   0.964  0.000  0.000
   519H     0.03800  0.09535   0.962  0.000  0.000
   520N    -0.32962 -0.69355   1.429  3.901  0.000
   521C     0.05888  0.02179   1.017  2.924  0.000
   522C     0.47569  0.57685   0.991  2.534  0.000
   523O    -0.58504 -0.66407   1.727  4.858  0.000
   524H     0.27407  0.46436   0.726  0.000  0.000
   525H     0.08154  0.15030   0.918  0.000  0.000
   526H     0.08025  0.15302   0.920  0.000  0.000
   527N    -0.31860 -0.67190   1.425  3.893  0.000
   528C     0.08563  0.09067   1.040  2.874  0.000
   529C     0.46198  0.56714   0.993  2.545  0.000
   530O    -0.61778 -0.66198   1.739  4.879  0.000
   531C     0.20262  0.12371   0.990  2.807  0.000
   532O    -0.59867 -0.81740   1.701  4.898  0.000
   533H     0.25815  0.45497   0.742  0.000  0.000
   534H     0.05985  0.14437   0.940  0.000  0.000
   535H     0.03093  0.10120   0.969  0.000  0.000
   536H     0.04440  0.11751   0.956  0.000  0.000
   537H     0.36014  0.53721   0.640  0.000  0.000
   538N    -0.32738 -0.68613   1.429  3.898  0.000
   539C     0.11034  0.10779   1.037  2.853  0.000
   540C     0.39343  0.36720   1.057  2.550  0.000
   541O    -0.50074 -0.57337   1.735  4.766  0.000
   542C    -0.08956 -0.17969   1.050  3.040  0.000
   543C     0.48274  0.57644   0.992  2.525  0.000
   544O    -0.62848 -0.67077   1.737  4.892  0.000
   545N    -0.39729 -0.85027   1.424  3.974  0.000
   546H     0.26620  0.48203   0.734  0.000  0.000
   547H     0.07202  0.14770   0.928  0.000  0.000
   548H     0.06713  0.14041   0.933  0.000  0.000
   549H     0.06683  0.12801   0.933  0.000  0.000
   550H     0.26084  0.44987   0.739  0.000  0.000
   551H     0.25546  0.45360   0.745  0.000  0.000
   552N    -0.55284 -1.05868   1.442  4.111  0.000
   553C     0.07985  0.07365   1.043  2.877  0.000
   554C     0.56277  0.62823   0.961  2.476  0.000
   555O    -0.74263 -0.78115   1.750  4.993  0.000
   556C    -0.04531 -0.14311   1.031  3.014  0.000
   557C    -0.00653 -0.02234   1.084  2.923  0.000
   558C    -0.03456 -0.08931   1.061  2.973  0.000
   559C    -0.04085 -0.09515   1.060  2.981  0.000
   560C    -0.08141 -0.13448   1.056  3.025  0.000
   561C    -0.09720 -0.14992   1.060  3.038  0.000
   562C     0.24606  0.25653   1.018  2.735  0.000
   563O    -0.54952 -0.75432   1.703  4.846  0.000
   564O    -0.74654 -0.78917   1.747  5.000  0.000
   565H     0.21056  0.41589   0.789  0.000  0.000
   566H     0.00169  0.07508   0.998  0.000  0.000
   567H     0.02437  0.08757   0.976  0.000  0.000
   568H     0.02390  0.08425   0.976  0.000  0.000
   569H     0.03325  0.09796   0.967  0.000  0.000
   570H     0.03271  0.09029   0.967  0.000  0.000
   571H     0.03879  0.10194   0.961  0.000  0.000
   572H     0.04451  0.10345   0.955  0.000  0.000
   573H     0.38348  0.55164   0.617  0.000  0.000
   574N    -0.20232 -0.80529   1.460  3.743  0.000
   575C     0.08273  0.07711   1.043  2.874  0.000
   576C     0.47366  0.57658   0.983  2.543  0.000
   577O    -0.60133 -0.65931   1.728  4.873  0.000
   578C    -0.09696 -0.18699   1.047  3.050  0.000
   579C     0.48613  0.57906   0.990  2.524  0.000
   580O    -0.61397 -0.68536   1.728  4.886  0.000
   581N    -0.39215 -0.84836   1.423  3.969  0.000
   582H     0.28625  0.48673   0.714  0.000  0.000
   583H     0.27575  0.46915   0.724  0.000  0.000
   584H     0.27841  0.47897   0.722  0.000  0.000
   585H     0.08514  0.17103   0.915  0.000  0.000
   586H     0.08193  0.15056   0.918  0.000  0.000
   587H     0.08610  0.15010   0.914  0.000  0.000
   588H     0.27099  0.46087   0.729  0.000  0.000
   589H     0.27588  0.46315   0.724  0.000  0.000
   590N    -0.31243 -0.67624   1.429  3.884  0.000
   591C     0.08554  0.08230   1.042  2.872  0.000
   592C     0.38640  0.35961   1.061  2.553  0.000
   593O    -0.51289 -0.57462   1.744  4.769  0.000
   594C    -0.00166 -0.07039   1.060  2.942  0.000
   595C    -0.10179 -0.25122   1.019  3.083  0.000
   596C    -0.08653 -0.23539   1.011  3.075  0.000
   597H     0.26491  0.47037   0.735  0.000  0.000
   598H     0.06336  0.13966   0.937  0.000  0.000
   599H     0.03488  0.09919   0.965  0.000  0.000
   600H     0.04879  0.10133   0.951  0.000  0.000
   601H     0.04118  0.09620   0.959  0.000  0.000
   602H     0.04073  0.09374   0.959  0.000  0.000
   603H     0.04137  0.09449   0.959  0.000  0.000
   604H     0.03829  0.09237   0.962  0.000  0.000
   605H     0.03911  0.09650   0.961  0.000  0.000
   606N    -0.21367 -0.81501   1.462  3.752  0.000
   607C     0.08698  0.07387   1.043  2.870  0.000
   608C     0.39555  0.36786   1.052  2.553  0.000
   609O    -0.51048 -0.57248   1.740  4.771  0.000
   610C    -0.09637 -0.18763   1.048  3.048  0.000
   611C     0.48266  0.57561   0.987  2.530  0.000
   612O    -0.61856 -0.68997   1.728  4.891  0.000
   613N    -0.39776 -0.85535   1.428  3.970  0.000
   614H     0.29574  0.49584   0.704  0.000  0.000
   615H     0.28740  0.47648   0.713  0.000  0.000
   616H     0.27785  0.47072   0.722  0.000  0.000
   617H     0.09733  0.17914   0.903  0.000  0.000
   618H     0.08133  0.14631   0.919  0.000  0.000
   619H     0.09272  0.15421   0.907  0.000  0.000
   620H     0.28322  0.49649   0.717  0.000  0.000
   621H     0.25945  0.44719   0.741  0.000  0.000
   622N    -0.53627 -1.04252   1.439  4.097  0.000
   623C     0.10753  0.09874   1.037  2.855  0.000
   624C     0.38532  0.35922   1.055  2.559  0.000
   625O    -0.53103 -0.58680   1.742  4.789  0.000
   626C    -0.08758 -0.17912   1.049  3.038  0.000
   627C     0.48736  0.57915   0.994  2.518  0.000
   628O    -0.59492 -0.67101   1.726  4.869  0.000
   629N    -0.39894 -0.85306   1.424  3.975  0.000
   630H     0.21180  0.40026   0.788  0.000  0.000
   631H     0.05273  0.12896   0.947  0.000  0.000
   632H     0.04894  0.11687   0.951  0.000  0.000
   633H     0.06355  0.12615   0.936  0.000  0.000
   634H     0.26456  0.46316   0.735  0.000  0.000
   635H     0.24818  0.43643   0.752  0.000  0.000
   636N    -0.53913 -1.04415   1.440  4.099  0.000
   637C     0.08347  0.07680   1.045  2.872  0.000
   638C     0.56182  0.62721   0.960  2.478  0.000
   639O    -0.75079 -0.78918   1.750  5.000  0.000
   640C    -0.05022 -0.14791   1.032  3.018  0.000
   641C    -0.00793 -0.02397   1.083  2.925  0.000
   642C    -0.04073 -0.09538   1.060  2.981  0.000
   643C    -0.03192 -0.08719   1.059  2.973  0.000
   644C    -0.08257 -0.13558   1.055  3.027  0.000
   645C    -0.08701 -0.14094   1.060  3.027  0.000
   646C     0.24795  0.25720   1.021  2.731  0.000
   647O    -0.55831 -0.76836   1.706  4.853  0.000
   648O    -0.72163 -0.76671   1.744  4.978  0.000
   649H     0.19440  0.38158   0.806  0.000  0.000
   650H     0.01109  0.08552   0.989  0.000  0.000
   651H     0.02209  0.08284   0.978  0.000  0.000
   652H     0.02845  0.08904   0.972  0.000  0.000
   653H     0.03110  0.09042   0.969  0.000  0.000
   654H     0.02910  0.08754   0.971  0.000  0.000
   655H     0.03952  0.09954   0.960  0.000  0.000
   656H     0.03721  0.10163   0.963  0.000  0.000
   657H     0.37701  0.56859   0.623  0.000  0.000
   658N    -0.54972 -1.05779   1.441  4.109  0.000
   659C     0.10748  0.09859   1.036  2.857  0.000
   660C     0.38292  0.35658   1.056  2.561  0.000
   661O    -0.52344 -0.58637   1.740  4.784  0.000
   662C    -0.09082 -0.18174   1.049  3.042  0.000
   663C     0.48378  0.57680   0.993  2.523  0.000
   664O    -0.63364 -0.67696   1.737  4.896  0.000
   665N    -0.40315 -0.85791   1.424  3.980  0.000
   666H     0.22730  0.43476   0.773  0.000  0.000
   667H     0.04368  0.11403   0.956  0.000  0.000
   668H     0.05807  0.13126   0.942  0.000  0.000
   669H     0.05114  0.11230   0.949  0.000  0.000
   670H     0.25308  0.45190   0.747  0.000  0.000
   671H     0.24645  0.44342   0.754  0.000  0.000
   672N    -0.54047 -1.04525   1.440  4.100  0.000
   673C     0.07814  0.07177   1.044  2.878  0.000
   674C     0.56618  0.63109   0.960  2.473  0.000
   675O    -0.74227 -0.78121   1.750  4.993  0.000
   676C    -0.04306 -0.14128   1.033  3.011  0.000
   677C    -0.00844 -0.02453   1.084  2.925  0.000
   678C    -0.03735 -0.09236   1.059  2.978  0.000
   679C    -0.03662 -0.09163   1.060  2.977  0.000
   680C    -0.07847 -0.13187   1.056  3.022  0.000
   681C    -0.09290 -0.14666   1.061  3.032  0.000
   682C     0.24860  0.25789   1.021  2.731  0.000
   683O    -0.55702 -0.76687   1.705  4.852  0.000
   684O    -0.72979 -0.77865   1.744  4.985  0.000
   685H     0.19282  0.38024   0.807  0.000  0.000
   686H     0.00873  0.08212   0.991  0.000  0.000
   687H     0.02395  0.08633   0.976  0.000  0.000
   688H     0.03265  0.09512   0.967  0.000  0.000
   689H     0.02665  0.08664   0.973  0.000  0.000
   690H     0.03060  0.08873   0.969  0.000  0.000
   691H     0.03999  0.10315   0.960  0.000  0.000
   692H     0.03955  0.10351   0.960  0.000  0.000
   693H     0.37712  0.56856   0.623  0.000  0.000
   694H     0.22951  0.47945   0.770  0.000  0.000
   695H     0.07204  0.15129   0.928  0.000  0.000
   696H     0.08438  0.16447   0.916  0.000  0.000
   697H     0.23717  0.48714   0.763  0.000  0.000
   698H     0.05268  0.13304   0.947  0.000  0.000
   699H     0.20993  0.46027   0.790  0.000  0.000
   700H     0.23202  0.48245   0.768  0.000  0.000
   701H     0.05080  0.13045   0.949  0.000  0.000
   702H     0.21159  0.46189   0.788  0.000  0.000
   703H     0.22012  0.46986   0.780  0.000  0.000
   704H     0.22228  0.47204   0.778  0.000  0.000
   705H     0.23782  0.48737   0.762  0.000  0.000
   706H     0.23746  0.48829   0.763  0.000  0.000
   707H     0.04961  0.12871   0.950  0.000  0.000
   708H     0.22983  0.47970   0.770  0.000  0.000
   709H     0.23734  0.48716   0.763  0.000  0.000
   710H     0.06342  0.14534   0.937  0.000  0.000
   711H     0.22939  0.48092   0.771  0.000  0.000
   712H     0.05410  0.13406   0.946  0.000  0.000
   713H     0.23874  0.48749   0.761  0.000  0.000
   714H     0.06634  0.14751   0.934  0.000  0.000
   715H     0.22607  0.47787   0.774  0.000  0.000
   716H     0.05385  0.13307   0.946  0.000  0.000
   717H     0.07350  0.15272   0.927  0.000  0.000
   718H     0.07125  0.15160   0.929  0.000  0.000
   719H     0.07108  0.15091   0.929  0.000  0.000
   720H     0.20512  0.45669   0.795  0.000  0.000

Wiberg/Mayer (AO) data.
largest (>0.10) Wiberg bond orders for each atom

 ---------------------------------------------------------------------------
     #   Z sym  total        # sym  WBO       # sym  WBO       # sym  WBO
 ---------------------------------------------------------------------------
     1   7 N    2.935 --     2 C    1.002   694 H    0.942     9 H    0.919
     2   6 C    3.978 --     1 N    1.002    10 H    0.962     3 C    0.956
                             5 C    0.953
     3   6 C    3.882 --     4 O    1.532    15 N    1.307     2 C    0.956
     4   8 O    1.886 --     3 C    1.532    15 N    0.159
     5   6 C    3.993 --     6 C    0.974    11 H    0.968    12 H    0.964
                             2 C    0.953
     6   6 C    3.885 --     7 O    1.540     8 N    1.322     5 C    0.974
     7   8 O    1.906 --     6 C    1.540     8 N    0.159
     8   7 N    3.320 --     6 C    1.322    13 H    0.900    14 H    0.893
                             7 O    0.159
     9   1 H    0.972 --     1 N    0.919
    10   1 H    1.021 --     2 C    0.962
    11   1 H    1.020 --     5 C    0.968
    12   1 H    1.015 --     5 C    0.964
    13   1 H    0.939 --     8 N    0.900
    14   1 H    0.959 --     8 N    0.893
    15   7 N    3.366 --     3 C    1.307    16 C    0.946    22 H    0.874
                             4 O    0.159
    16   6 C    3.943 --    23 H    0.959    19 C    0.951    17 C    0.951
                            15 N    0.946
    17   6 C    3.896 --    18 O    1.528    29 N    1.333    16 C    0.951
    18   8 O    1.910 --    17 C    1.528    29 N    0.165
    19   6 C    3.919 --    21 C    0.997    24 H    0.964    20 O    0.952
                            16 C    0.951
    20   8 O    1.924 --    19 C    0.952    25 H    0.809
    21   6 C    3.994 --    19 C    0.997    26 H    0.982    27 H    0.979
                            28 H    0.978
    22   1 H    0.963 --    15 N    0.874
    23   1 H    1.030 --    16 C    0.959
    24   1 H    1.020 --    19 C    0.964
    25   1 H    0.888 --    20 O    0.809
    26   1 H    1.011 --    21 C    0.982
    27   1 H    1.011 --    21 C    0.979
    28   1 H    1.021 --    21 C    0.978
    29   7 N    3.385 --    17 C    1.333    30 C    0.937    42 H    0.884
                            18 O    0.165
    30   6 C    3.933 --    33 C    0.965    43 H    0.951    29 N    0.937
                            31 C    0.916
    31   6 C    3.870 --    32 O    1.458    41 O    1.446    30 C    0.916
    32   8 O    1.858 --    31 C    1.458    41 O    0.168
    33   6 C    3.995 --    34 C    1.003    45 H    0.973    44 H    0.966
                            30 C    0.965
    34   6 C    3.988 --    36 C    1.416    35 C    1.412    33 C    1.003
    35   6 C    3.993 --    37 C    1.442    34 C    1.412    46 H    0.970
                            38 C    0.112
    36   6 C    3.994 --    38 C    1.441    34 C    1.416    47 H    0.972
                            37 C    0.106
    37   6 C    3.990 --    35 C    1.442    39 C    1.382    48 H    0.964
                            36 C    0.106
    38   6 C    3.988 --    36 C    1.441    39 C    1.373    49 H    0.961
                            35 C    0.112
    39   6 C    3.909 --    37 C    1.382    38 C    1.373    40 O    1.024
    40   8 O    2.033 --    39 C    1.024    50 H    0.796
    41   8 O    1.795 --    31 C    1.446    32 O    0.168
    42   1 H    0.961 --    29 N    0.884
    43   1 H    1.028 --    30 C    0.951
    44   1 H    1.015 --    33 C    0.966
    45   1 H    1.009 --    33 C    0.973
    46   1 H    1.019 --    35 C    0.970
    47   1 H    1.005 --    36 C    0.972
    48   1 H    1.011 --    37 C    0.964
    49   1 H    1.007 --    38 C    0.961
    50   1 H    0.879 --    40 O    0.796
    51   7 N    3.600 --    52 C    0.937    60 H    0.882    61 H    0.873
                            59 H    0.857
    52   6 C    3.929 --    55 C    0.983    53 C    0.964    62 H    0.954
                            51 N    0.937
    53   6 C    3.902 --    54 O    1.534    67 N    1.325    52 C    0.964
    54   8 O    1.911 --    53 C    1.534    67 N    0.168
    55   6 C    3.988 --    52 C    0.983    56 C    0.975    63 H    0.961
                            64 H    0.953
    56   6 C    3.900 --    57 O    1.495    58 N    1.381    55 C    0.975
    57   8 O    1.879 --    56 C    1.495    58 N    0.167
    58   7 N    3.348 --    56 C    1.381    66 H    0.872    65 H    0.846
                            57 O    0.167
    59   1 H    0.971 --    51 N    0.857
    60   1 H    0.963 --    51 N    0.882
    61   1 H    0.959 --    51 N    0.873
    62   1 H    1.022 --    52 C    0.954
    63   1 H    1.004 --    55 C    0.961
    64   1 H    1.004 --    55 C    0.953
    65   1 H    0.941 --    58 N    0.846
    66   1 H    0.945 --    58 N    0.872
    67   7 N    3.385 --    53 C    1.325    68 C    0.933    74 H    0.879
                            54 O    0.168
    68   6 C    3.936 --    75 H    0.966    71 C    0.964    69 C    0.948
                            67 N    0.933
    69   6 C    3.894 --    70 O    1.529    83 N    1.328    68 C    0.948
    70   8 O    1.893 --    69 C    1.529    83 N    0.166
    71   6 C    3.988 --    73 C    1.011    72 C    1.001    76 H    0.969
                            68 C    0.964
    72   6 C    3.995 --    71 C    1.001    79 H    0.985    78 H    0.984
                            77 H    0.983
    73   6 C    3.996 --    71 C    1.011    82 H    0.984    81 H    0.983
                            80 H    0.981
    74   1 H    0.954 --    67 N    0.879
    75   1 H    1.017 --    68 C    0.966
    76   1 H    1.012 --    71 C    0.969
    77   1 H    1.008 --    72 C    0.983
    78   1 H    1.007 --    72 C    0.984
    79   1 H    1.004 --    72 C    0.985
    80   1 H    1.007 --    73 C    0.981
    81   1 H    1.003 --    73 C    0.983
    82   1 H    1.006 --    73 C    0.984
    83   7 N    3.374 --    69 C    1.328    84 C    0.950    87 H    0.857
                            70 O    0.166
    84   6 C    3.945 --    85 C    0.968    89 H    0.960    83 N    0.950
                            88 H    0.942
    85   6 C    3.890 --    86 O    1.527    90 N    1.309    84 C    0.968
    86   8 O    1.925 --    85 C    1.527    90 N    0.155
    87   1 H    0.946 --    83 N    0.857
    88   1 H    1.019 --    84 C    0.942
    89   1 H    1.021 --    84 C    0.960
    90   7 N    3.370 --    85 C    1.309    91 C    0.931    96 H    0.894
                            86 O    0.155
    91   6 C    3.943 --    94 C    0.986    97 H    0.966    92 C    0.943
                            90 N    0.931
    92   6 C    3.898 --    93 O    1.533   101 N    1.334    91 C    0.943
    93   8 O    1.904 --    92 C    1.533   101 N    0.170
    94   6 C    3.915 --    91 C    0.986    98 H    0.970    99 H    0.964
                            95 O    0.954
    95   8 O    1.894 --    94 C    0.954   100 H    0.841
    96   1 H    0.959 --    90 N    0.894
    97   1 H    1.016 --    91 C    0.966
    98   1 H    1.022 --    94 C    0.970
    99   1 H    1.026 --    94 C    0.964
   100   1 H    0.902 --    95 O    0.841
   101   7 N    3.383 --    92 C    1.334   102 C    0.947   109 H    0.861
                            93 O    0.170
   102   6 C    3.947 --   105 C    0.963   110 H    0.959   101 N    0.947
                           103 C    0.944
   103   6 C    3.895 --   104 O    1.545   115 N    1.318   102 C    0.944
   104   8 O    1.902 --   103 C    1.545   115 N    0.167
   105   6 C    3.989 --   106 C    0.970   111 H    0.966   102 C    0.963
                           112 H    0.963
   106   6 C    3.890 --   107 O    1.530   108 N    1.345   105 C    0.970
   107   8 O    1.915 --   106 C    1.530   108 N    0.164
   108   7 N    3.338 --   106 C    1.345   114 H    0.896   113 H    0.882
                           107 O    0.164
   109   1 H    0.954 --   101 N    0.861
   110   1 H    1.024 --   102 C    0.959
   111   1 H    1.019 --   105 C    0.966
   112   1 H    1.011 --   105 C    0.963
   113   1 H    0.955 --   108 N    0.882
   114   1 H    0.961 --   108 N    0.896
   115   7 N    3.378 --   103 C    1.318   116 C    0.940   122 H    0.879
                           104 O    0.167
   116   6 C    3.943 --   123 H    0.962   119 C    0.960   117 C    0.948
                           115 N    0.940
   117   6 C    3.907 --   118 O    1.539   129 N    1.330   116 C    0.948
   118   8 O    1.904 --   117 C    1.539   129 N    0.173
   119   6 C    3.917 --   121 C    0.998   124 H    0.969   116 C    0.960
                           120 O    0.943
   120   8 O    1.877 --   119 C    0.943   125 H    0.862
   121   6 C    3.995 --   119 C    0.998   126 H    0.983   128 H    0.981
                           127 H    0.980
   122   1 H    0.957 --   115 N    0.879
   123   1 H    1.026 --   116 C    0.962
   124   1 H    1.012 --   119 C    0.969
   125   1 H    0.877 --   120 O    0.862
   126   1 H    1.010 --   121 C    0.983
   127   1 H    1.016 --   121 C    0.980
   128   1 H    1.013 --   121 C    0.981
   129   7 N    3.379 --   117 C    1.330   130 C    0.929   142 H    0.876
                           118 O    0.173
   130   6 C    3.923 --   133 C    0.961   143 H    0.956   129 N    0.929
                           131 C    0.914
   131   6 C    3.887 --   141 O    1.470   132 O    1.466   130 C    0.914
   132   8 O    1.724 --   131 C    1.466   141 O    0.179
   133   6 C    3.995 --   134 C    1.012   144 H    0.974   145 H    0.972
                           130 C    0.961
   134   6 C    3.989 --   136 C    1.411   135 C    1.404   133 C    1.012
   135   6 C    3.994 --   137 C    1.460   134 C    1.404   146 H    0.969
                           138 C    0.105
   136   6 C    3.994 --   138 C    1.449   134 C    1.411   147 H    0.972
                           137 C    0.106
   137   6 C    3.990 --   135 C    1.460   139 C    1.369   148 H    0.963
                           136 C    0.106
   138   6 C    3.989 --   136 C    1.449   139 C    1.382   149 H    0.969
                           135 C    0.105
   139   6 C    3.902 --   138 C    1.382   137 C    1.369   140 O    1.017
   140   8 O    2.034 --   139 C    1.017   150 H    0.843
   141   8 O    1.740 --   131 C    1.470   132 O    0.179
   142   1 H    0.961 --   129 N    0.876
   143   1 H    1.029 --   130 C    0.956
   144   1 H    1.007 --   133 C    0.974
   145   1 H    1.012 --   133 C    0.972
   146   1 H    1.013 --   135 C    0.969
   147   1 H    1.002 --   136 C    0.972
   148   1 H    1.010 --   137 C    0.963
   149   1 H    0.999 --   138 C    0.969
   150   1 H    0.866 --   140 O    0.843
   151   8 O    1.812 --   153 H    0.833   152 H    0.826
   152   1 H    0.876 --   151 O    0.826
   153   1 H    0.875 --   151 O    0.833
   154   7 N    2.944 --   155 C    0.989   167 H    0.950   703 H    0.945
   155   6 C    3.964 --   154 N    0.989   168 H    0.966   158 C    0.959
                           156 C    0.924
   156   6 C    3.869 --   157 O    1.486   166 O    1.423   155 C    0.924
   157   8 O    1.773 --   156 C    1.486   166 O    0.171
   158   6 C    3.996 --   159 C    1.005   170 H    0.974   169 H    0.966
                           155 C    0.959
   159   6 C    3.988 --   161 C    1.417   160 C    1.409   158 C    1.005
   160   6 C    3.994 --   162 C    1.441   159 C    1.409   171 H    0.972
                           163 C    0.112
   161   6 C    3.994 --   163 C    1.444   159 C    1.417   172 H    0.973
                           162 C    0.108
   162   6 C    3.991 --   160 C    1.441   164 C    1.389   173 H    0.973
                           161 C    0.108
   163   6 C    3.989 --   161 C    1.444   164 C    1.377   174 H    0.971
                           160 C    0.112
   164   6 C    3.904 --   162 C    1.389   163 C    1.377   165 O    1.017
   165   8 O    1.992 --   164 C    1.017   175 H    0.844
   166   8 O    1.766 --   156 C    1.423   157 O    0.171
   167   1 H    0.971 --   154 N    0.950
   168   1 H    1.018 --   155 C    0.966
   169   1 H    1.020 --   158 C    0.966
   170   1 H    1.010 --   158 C    0.974
   171   1 H    1.008 --   160 C    0.972
   172   1 H    1.002 --   161 C    0.973
   173   1 H    1.002 --   162 C    0.973
   174   1 H    0.998 --   163 C    0.971
   175   1 H    0.863 --   165 O    0.844
   176   7 N    2.945 --   177 C    0.991   189 H    0.949   704 H    0.944
   177   6 C    3.966 --   176 N    0.991   180 C    0.958   190 H    0.954
                           178 C    0.926
   178   6 C    3.865 --   179 O    1.457   188 O    1.438   177 C    0.926
   179   8 O    1.815 --   178 C    1.457   188 O    0.167
   180   6 C    3.997 --   181 C    1.006   191 H    0.977   192 H    0.974
                           177 C    0.958
   181   6 C    3.988 --   183 C    1.415   182 C    1.410   180 C    1.006
   182   6 C    3.994 --   184 C    1.442   181 C    1.410   193 H    0.973
                           185 C    0.112
   183   6 C    3.994 --   185 C    1.441   181 C    1.415   194 H    0.972
                           184 C    0.108
   184   6 C    3.991 --   182 C    1.442   186 C    1.390   195 H    0.973
                           183 C    0.108
   185   6 C    3.990 --   183 C    1.441   186 C    1.378   196 H    0.971
                           182 C    0.112
   186   6 C    3.904 --   184 C    1.390   185 C    1.378   187 O    1.015
   187   8 O    1.992 --   186 C    1.015   197 H    0.846
   188   8 O    1.786 --   178 C    1.438   179 O    0.167
   189   1 H    0.969 --   176 N    0.949
   190   1 H    1.026 --   177 C    0.954
   191   1 H    1.007 --   180 C    0.977
   192   1 H    1.011 --   180 C    0.974
   193   1 H    1.005 --   182 C    0.973
   194   1 H    1.004 --   183 C    0.972
   195   1 H    1.001 --   184 C    0.973
   196   1 H    1.000 --   185 C    0.971
   197   1 H    0.865 --   187 O    0.846
   198   8 O    1.811 --   200 H    0.833   199 H    0.826
   199   1 H    0.877 --   198 O    0.826
   200   1 H    0.876 --   198 O    0.833
   201   8 O    1.756 --   203 H    0.868   202 H    0.855
   202   1 H    0.887 --   201 O    0.855
   203   1 H    0.878 --   201 O    0.868
   204   7 N    2.937 --   205 C    0.999   212 H    0.947   705 H    0.938
   205   6 C    3.975 --   204 N    0.999   213 H    0.961   208 C    0.955
                           206 C    0.955
   206   6 C    3.888 --   207 O    1.562   218 N    1.291   205 C    0.955
   207   8 O    1.839 --   206 C    1.562   218 N    0.163
   208   6 C    3.994 --   209 C    0.973   214 H    0.970   215 H    0.962
                           205 C    0.955
   209   6 C    3.886 --   210 O    1.553   211 N    1.311   208 C    0.973
   210   8 O    1.916 --   209 C    1.553   211 N    0.159
   211   7 N    3.311 --   209 C    1.311   217 H    0.906   216 H    0.895
                           210 O    0.159
   212   1 H    0.964 --   204 N    0.947
   213   1 H    1.021 --   205 C    0.961
   214   1 H    1.011 --   208 C    0.970
   215   1 H    1.013 --   208 C    0.962
   216   1 H    0.932 --   211 N    0.895
   217   1 H    0.939 --   211 N    0.906
   218   7 N    3.355 --   206 C    1.291   219 C    0.952   225 H    0.872
                           207 O    0.163
   219   6 C    3.951 --   226 H    0.966   222 C    0.952   218 N    0.952
                           220 C    0.951
   220   6 C    3.896 --   221 O    1.541   232 N    1.321   219 C    0.951
   221   8 O    1.918 --   220 C    1.541   232 N    0.165
   222   6 C    3.912 --   224 C    0.998   227 H    0.969   219 C    0.952
                           223 O    0.946
   223   8 O    1.883 --   222 C    0.946   228 H    0.855
   224   6 C    3.993 --   222 C    0.998   229 H    0.982   230 H    0.978
                           231 H    0.978
   225   1 H    0.962 --   218 N    0.872
   226   1 H    1.016 --   219 C    0.966
   227   1 H    1.012 --   222 C    0.969
   228   1 H    0.880 --   223 O    0.855
   229   1 H    1.009 --   224 C    0.982
   230   1 H    1.010 --   224 C    0.978
   231   1 H    1.022 --   224 C    0.978
   232   7 N    3.375 --   220 C    1.321   233 C    0.931   245 H    0.902
                           221 O    0.165
   233   6 C    3.924 --   236 C    0.967   246 H    0.951   232 N    0.931
                           234 C    0.913
   234   6 C    3.875 --   235 O    1.472   244 O    1.444   233 C    0.913
   235   8 O    1.820 --   234 C    1.472   244 O    0.172
   236   6 C    3.995 --   237 C    1.002   247 H    0.976   248 H    0.973
                           233 C    0.967
   237   6 C    3.988 --   239 C    1.417   238 C    1.413   236 C    1.002
   238   6 C    3.994 --   240 C    1.443   237 C    1.413   249 H    0.973
                           241 C    0.112
   239   6 C    3.995 --   241 C    1.445   237 C    1.417   250 H    0.972
                           240 C    0.106
   240   6 C    3.990 --   238 C    1.443   242 C    1.382   251 H    0.967
                           239 C    0.106
   241   6 C    3.990 --   239 C    1.445   242 C    1.372   252 H    0.960
                           238 C    0.112
   242   6 C    3.912 --   240 C    1.382   241 C    1.372   243 O    1.036
   243   8 O    2.003 --   242 C    1.036   253 H    0.803
   244   8 O    1.794 --   234 C    1.444   235 O    0.172
   245   1 H    0.948 --   232 N    0.902
   246   1 H    1.028 --   233 C    0.951
   247   1 H    1.001 --   236 C    0.976
   248   1 H    1.008 --   236 C    0.973
   249   1 H    1.005 --   238 C    0.973
   250   1 H    1.003 --   239 C    0.972
   251   1 H    1.006 --   240 C    0.967
   252   1 H    1.014 --   241 C    0.960
   253   1 H    0.884 --   243 O    0.803
   254   7 N    2.944 --   255 C    0.982   261 H    0.944   706 H    0.932
   255   6 C    3.974 --   256 C    0.985   254 N    0.982   262 H    0.973
                           258 C    0.953
   256   6 C    3.809 --   257 O    1.798   255 C    0.985   707 H    0.965
   257   8 O    1.934 --   256 C    1.798
   258   6 C    3.992 --   259 C    1.005   260 C    1.004   263 H    0.971
                           255 C    0.953
   259   6 C    3.997 --   258 C    1.005   266 H    0.984   265 H    0.982
                           264 H    0.981
   260   6 C    3.997 --   258 C    1.004   268 H    0.981   269 H    0.979
                           267 H    0.977
   261   1 H    0.964 --   254 N    0.944
   262   1 H    1.008 --   255 C    0.973
   263   1 H    1.011 --   258 C    0.971
   264   1 H    1.008 --   259 C    0.981
   265   1 H    1.009 --   259 C    0.982
   266   1 H    1.005 --   259 C    0.984
   267   1 H    1.009 --   260 C    0.977
   268   1 H    1.013 --   260 C    0.981
   269   1 H    1.009 --   260 C    0.979
   270   7 N    2.936 --   271 C    1.004   708 H    0.942   278 H    0.917
   271   6 C    3.982 --   270 N    1.004   279 H    0.967   272 C    0.955
                           274 C    0.955
   272   6 C    3.883 --   273 O    1.546   284 N    1.294   271 C    0.955
   273   8 O    1.896 --   272 C    1.546   284 N    0.158
   274   6 C    3.993 --   275 C    0.971   280 H    0.968   281 H    0.968
                           271 C    0.955
   275   6 C    3.891 --   276 O    1.569   277 N    1.313   274 C    0.971
   276   8 O    1.836 --   275 C    1.569   277 N    0.166
   277   7 N    3.310 --   275 C    1.313   282 H    0.900   283 H    0.894
                           276 O    0.166
   278   1 H    0.971 --   270 N    0.917
   279   1 H    1.003 --   271 C    0.967
   280   1 H    1.020 --   274 C    0.968
   281   1 H    1.011 --   274 C    0.968
   282   1 H    0.939 --   277 N    0.900
   283   1 H    0.961 --   277 N    0.894
   284   7 N    3.359 --   272 C    1.294   285 C    0.940   291 H    0.897
                           273 O    0.158
   285   6 C    3.936 --   292 H    0.958   288 C    0.952   286 C    0.949
                           284 N    0.940
   286   6 C    3.901 --   287 O    1.550   298 N    1.325   285 C    0.949
   287   8 O    1.856 --   286 C    1.550   298 N    0.170
   288   6 C    3.922 --   290 C    0.999   293 H    0.964   289 O    0.956
                           285 C    0.952
   289   8 O    1.925 --   288 C    0.956   294 H    0.807
   290   6 C    3.995 --   288 C    0.999   297 H    0.984   296 H    0.984
                           295 H    0.983
   291   1 H    0.950 --   284 N    0.897
   292   1 H    1.029 --   285 C    0.958
   293   1 H    1.020 --   288 C    0.964
   294   1 H    0.886 --   289 O    0.807
   295   1 H    1.011 --   290 C    0.983
   296   1 H    1.004 --   290 C    0.984
   297   1 H    1.013 --   290 C    0.984
   298   7 N    3.380 --   286 C    1.325   299 C    0.940   311 H    0.882
                           287 O    0.170
   299   6 C    3.936 --   302 C    0.965   312 H    0.960   298 N    0.940
                           300 C    0.917
   300   6 C    3.868 --   301 O    1.459   310 O    1.443   299 C    0.917
   301   8 O    1.860 --   300 C    1.459   310 O    0.168
   302   6 C    3.995 --   303 C    1.003   314 H    0.974   313 H    0.966
                           299 C    0.965
   303   6 C    3.988 --   305 C    1.419   304 C    1.412   302 C    1.003
   304   6 C    3.993 --   306 C    1.442   303 C    1.412   315 H    0.969
                           307 C    0.112
   305   6 C    3.994 --   307 C    1.442   303 C    1.419   316 H    0.973
                           306 C    0.107
   306   6 C    3.991 --   304 C    1.442   308 C    1.386   317 H    0.964
                           305 C    0.107
   307   6 C    3.989 --   305 C    1.442   308 C    1.378   318 H    0.970
                           304 C    0.112
   308   6 C    3.902 --   306 C    1.386   307 C    1.378   309 O    1.009
   309   8 O    2.035 --   308 C    1.009   319 H    0.842
   310   8 O    1.783 --   300 C    1.443   301 O    0.168
   311   1 H    0.960 --   298 N    0.882
   312   1 H    1.022 --   299 C    0.960
   313   1 H    1.015 --   302 C    0.966
   314   1 H    1.008 --   302 C    0.974
   315   1 H    1.019 --   304 C    0.969
   316   1 H    1.001 --   305 C    0.973
   317   1 H    1.011 --   306 C    0.964
   318   1 H    0.998 --   307 C    0.970
   319   1 H    0.870 --   309 O    0.842
   320   7 N    2.942 --   321 C    0.988   327 H    0.943   709 H    0.934
   321   6 C    3.973 --   320 N    0.988   328 H    0.972   324 C    0.964
                           322 C    0.954
   322   6 C    3.881 --   323 O    1.567   336 N    1.282   321 C    0.954
   323   8 O    1.851 --   322 C    1.567   336 N    0.157
   324   6 C    3.993 --   325 C    1.006   326 C    1.005   329 H    0.971
                           321 C    0.964
   325   6 C    3.997 --   324 C    1.006   332 H    0.984   331 H    0.983
                           330 H    0.981
   326   6 C    3.996 --   324 C    1.005   334 H    0.984   335 H    0.980
                           333 H    0.979
   327   1 H    0.963 --   320 N    0.943
   328   1 H    1.006 --   321 C    0.972
   329   1 H    1.011 --   324 C    0.971
   330   1 H    1.008 --   325 C    0.981
   331   1 H    1.010 --   325 C    0.983
   332   1 H    1.006 --   325 C    0.984
   333   1 H    1.008 --   326 C    0.979
   334   1 H    1.003 --   326 C    0.984
   335   1 H    1.003 --   326 C    0.980
   336   7 N    3.343 --   322 C    1.282   337 C    0.950   340 H    0.898
                           323 O    0.157
   337   6 C    3.946 --   338 C    1.005   342 H    0.956   336 N    0.950
                           341 H    0.917
   338   6 C    3.812 --   339 O    1.770   337 C    1.005   710 H    0.962
   339   8 O    2.003 --   338 C    1.770
   340   1 H    0.938 --   336 N    0.898
   341   1 H    1.013 --   337 C    0.917
   342   1 H    1.019 --   337 C    0.956
   343   7 N    2.940 --   344 C    0.997   351 H    0.944   711 H    0.940
   344   6 C    3.977 --   343 N    0.997   345 C    0.991   352 H    0.953
                           347 C    0.944
   345   6 C    3.817 --   346 O    1.797   344 C    0.991   712 H    0.963
   346   8 O    1.927 --   345 C    1.797
   347   6 C    3.992 --   353 H    0.977   348 C    0.969   354 H    0.964
                           344 C    0.944
   348   6 C    3.893 --   349 O    1.554   350 N    1.323   347 C    0.969
   349   8 O    1.920 --   348 C    1.554   350 N    0.164
   350   7 N    3.325 --   348 C    1.323   356 H    0.911   355 H    0.878
                           349 O    0.164
   351   1 H    0.968 --   343 N    0.944
   352   1 H    1.022 --   344 C    0.953
   353   1 H    0.999 --   347 C    0.977
   354   1 H    1.003 --   347 C    0.964
   355   1 H    0.951 --   350 N    0.878
   356   1 H    0.951 --   350 N    0.911
   357   7 N    2.953 --   358 C    0.994   361 H    0.940   713 H    0.939
   358   6 C    3.978 --   359 C    1.012   357 N    0.994   363 H    0.959
                           362 H    0.930
   359   6 C    3.808 --   360 O    1.743   358 C    1.012   714 H    0.961
   360   8 O    2.015 --   359 C    1.743
   361   1 H    0.953 --   357 N    0.940
   362   1 H    1.004 --   358 C    0.930
   363   1 H    1.030 --   358 C    0.959
   364   7 N    2.934 --   365 C    1.003   715 H    0.942   372 H    0.915
   365   6 C    3.982 --   364 N    1.003   366 C    0.992   373 H    0.958
                           368 C    0.941
   366   6 C    3.815 --   367 O    1.789   365 C    0.992   716 H    0.963
   367   8 O    1.948 --   366 C    1.789
[...]
   434   8 O    1.925 --   433 C    1.544   435 N    0.164
   435   7 N    3.326 --   433 C    1.333   441 H    0.906   440 H    0.877
                           434 O    0.164
   436   1 H    0.947 --   428 N    0.898
   437   1 H    1.024 --   429 C    0.957
   438   1 H    0.994 --   432 C    0.975
   439   1 H    1.007 --   432 C    0.961
   440   1 H    0.950 --   435 N    0.877
   441   1 H    0.941 --   435 N    0.906
   442   7 N    3.365 --   430 C    1.298   443 C    0.946   449 H    0.874
                           431 O    0.169
   443   6 C    3.952 --   444 C    0.986   450 H    0.960   442 N    0.946
                           446 C    0.942
   444   6 C    3.815 --   445 O    1.797   443 C    0.986   717 H    0.959
   445   8 O    2.009 --   444 C    1.797
   446   6 C    3.916 --   448 C    0.996   451 H    0.969   447 O    0.945
                           443 C    0.942
   447   8 O    1.897 --   446 C    0.945   452 H    0.856
   448   6 C    3.993 --   446 C    0.996   454 H    0.982   455 H    0.981
                           453 H    0.980
   449   1 H    0.956 --   442 N    0.874
   450   1 H    1.012 --   443 C    0.960
   451   1 H    1.006 --   446 C    0.969
   452   1 H    0.873 --   447 O    0.856
   453   1 H    1.009 --   448 C    0.980
   454   1 H    1.004 --   448 C    0.982
   455   1 H    1.012 --   448 C    0.981
   456   7 N    3.601 --   457 C    0.942   465 H    0.881   466 H    0.871
                           464 H    0.855
   457   6 C    3.936 --   460 C    0.984   458 C    0.963   467 H    0.960
                           456 N    0.942
   458   6 C    3.902 --   459 O    1.546   472 N    1.312   457 C    0.963
   459   8 O    1.920 --   458 C    1.546   472 N    0.166
   460   6 C    3.989 --   457 C    0.984   461 C    0.974   468 H    0.963
                           469 H    0.952
   461   6 C    3.901 --   462 O    1.579   463 N    1.310   460 C    0.974
   462   8 O    1.861 --   461 C    1.579   463 N    0.167
   463   7 N    3.301 --   461 C    1.310   471 H    0.903   470 H    0.889
                           462 O    0.167
   464   1 H    0.965 --   456 N    0.855
   465   1 H    0.959 --   456 N    0.881
   466   1 H    0.960 --   456 N    0.871
   467   1 H    1.006 --   457 C    0.960
   468   1 H    0.999 --   460 C    0.963
   469   1 H    0.997 --   460 C    0.952
   470   1 H    0.924 --   463 N    0.889
   471   1 H    0.928 --   463 N    0.903
   472   7 N    3.382 --   458 C    1.312   473 C    0.927   479 H    0.895
                           459 O    0.166
   473   6 C    3.932 --   474 C    0.973   480 H    0.966   476 C    0.956
                           472 N    0.927
   474   6 C    3.813 --   475 O    1.818   473 C    0.973   718 H    0.959
   475   8 O    1.955 --   474 C    1.818
   476   6 C    3.986 --   478 C    1.010   477 C    1.002   481 H    0.973
                           473 C    0.956
   477   6 C    3.995 --   476 C    1.002   482 H    0.985   484 H    0.983
                           483 H    0.983
   478   6 C    3.996 --   476 C    1.010   487 H    0.983   486 H    0.980
                           485 H    0.979
   479   1 H    0.933 --   472 N    0.895
   480   1 H    1.020 --   473 C    0.966
   481   1 H    1.004 --   476 C    0.973
   482   1 H    1.002 --   477 C    0.985
   483   1 H    1.003 --   477 C    0.983
   484   1 H    1.004 --   477 C    0.983
   485   1 H    1.005 --   478 C    0.979
   486   1 H    1.007 --   478 C    0.980
   487   1 H    1.005 --   478 C    0.983
   488   7 N    3.594 --   489 C    0.929   498 H    0.904   497 H    0.875
                           496 H    0.845
   489   6 C    3.919 --   492 C    0.986   490 C    0.961   499 H    0.952
                           488 N    0.929
   490   6 C    3.909 --   491 O    1.559   504 N    1.315   489 C    0.961
   491   8 O    1.876 --   490 C    1.559   504 N    0.172
   492   6 C    3.989 --   489 C    0.986   493 C    0.977   500 H    0.962
                           501 H    0.949
   493   6 C    3.899 --   494 O    1.510   495 N    1.364   492 C    0.977
   494   8 O    1.888 --   493 C    1.510   495 N    0.166
   495   7 N    3.338 --   493 C    1.364   503 H    0.904   502 H    0.837
                           494 O    0.166
   496   1 H    0.966 --   488 N    0.845
   497   1 H    0.943 --   488 N    0.875
   498   1 H    0.926 --   488 N    0.904
   499   1 H    1.021 --   489 C    0.952
   500   1 H    0.992 --   492 C    0.962
   501   1 H    1.000 --   492 C    0.949
   502   1 H    0.935 --   495 N    0.837
   503   1 H    0.931 --   495 N    0.904
   504   7 N    3.381 --   490 C    1.315   505 C    0.936   511 H    0.877
                           491 O    0.172
   505   6 C    3.939 --   512 H    0.968   508 C    0.963   506 C    0.949
                           504 N    0.936
   506   6 C    3.889 --   507 O    1.548   520 N    1.303   505 C    0.949
   507   8 O    1.906 --   506 C    1.548   520 N    0.162
   508   6 C    3.987 --   510 C    1.011   509 C    1.002   513 H    0.970
                           505 C    0.963
   509   6 C    3.995 --   508 C    1.002   516 H    0.987   514 H    0.985
                           515 H    0.984
   510   6 C    3.995 --   508 C    1.011   518 H    0.986   519 H    0.984
                           517 H    0.984
   511   1 H    0.952 --   504 N    0.877
   512   1 H    1.008 --   505 C    0.968
   513   1 H    1.011 --   508 C    0.970
   514   1 H    1.001 --   509 C    0.985
   515   1 H    1.004 --   509 C    0.984
   516   1 H    1.000 --   509 C    0.987
   517   1 H    1.002 --   510 C    0.984
   518   1 H    1.002 --   510 C    0.986
   519   1 H    1.006 --   510 C    0.984
   520   7 N    3.361 --   506 C    1.303   521 C    0.947   524 H    0.893
                           507 O    0.162
   521   6 C    3.943 --   522 C    0.965   526 H    0.959   525 H    0.957
                           520 N    0.947
   522   6 C    3.894 --   523 O    1.536   527 N    1.309   521 C    0.965
   523   8 O    1.933 --   522 C    1.536   527 N    0.158
   524   1 H    0.928 --   520 N    0.893
   525   1 H    0.996 --   521 C    0.957
   526   1 H    1.011 --   521 C    0.959
   527   7 N    3.369 --   522 C    1.309   528 C    0.928   533 H    0.898
                           523 O    0.158
   528   6 C    3.940 --   531 C    0.986   534 H    0.965   529 C    0.942
                           527 N    0.928
   529   6 C    3.902 --   530 O    1.563   538 N    1.318   528 C    0.942
   530   8 O    1.854 --   529 C    1.563   538 N    0.174
   531   6 C    3.919 --   528 C    0.986   535 H    0.972   536 H    0.963
                           532 O    0.958
   532   8 O    1.895 --   531 C    0.958   537 H    0.837
   533   1 H    0.938 --   527 N    0.898
   534   1 H    1.015 --   528 C    0.965
   535   1 H    1.014 --   531 C    0.972
   536   1 H    1.026 --   531 C    0.963
   537   1 H    0.898 --   532 O    0.837
   538   7 N    3.372 --   529 C    1.318   539 C    0.951   546 H    0.859
                           530 O    0.174
   539   6 C    3.954 --   540 C    0.979   547 H    0.955   542 C    0.951
                           538 N    0.951
   540   6 C    3.815 --   541 O    1.805   539 C    0.979   719 H    0.959
   541   8 O    1.998 --   540 C    1.805
   542   6 C    3.986 --   548 H    0.965   549 H    0.965   543 C    0.964
                           539 C    0.951
   543   6 C    3.897 --   544 O    1.576   545 N    1.319   542 C    0.964
   544   8 O    1.846 --   543 C    1.576   545 N    0.171
   545   7 N    3.319 --   543 C    1.319   550 H    0.900   551 H    0.893
                           544 O    0.171
   546   1 H    0.953 --   538 N    0.859
   547   1 H    1.009 --   539 C    0.955
   548   1 H    1.019 --   542 C    0.965
   549   1 H    1.003 --   542 C    0.965
   550   1 H    0.939 --   545 N    0.900
   551   1 H    0.960 --   545 N    0.893
   552   7 N    2.943 --   553 C    0.991   720 H    0.951   565 H    0.921
   553   6 C    3.965 --   552 N    0.991   566 H    0.970   556 C    0.952
                           554 C    0.929
   554   6 C    3.879 --   555 O    1.464   564 O    1.455   553 C    0.929
   555   8 O    1.714 --   554 C    1.464   564 O    0.175
   556   6 C    3.996 --   557 C    1.014   568 H    0.973   567 H    0.964
                           553 C    0.952
   557   6 C    3.989 --   559 C    1.409   558 C    1.399   556 C    1.014
   558   6 C    3.993 --   560 C    1.457   557 C    1.399   569 H    0.968
                           561 C    0.104
   559   6 C    3.994 --   561 C    1.449   557 C    1.409   570 H    0.973
                           560 C    0.106
   560   6 C    3.990 --   558 C    1.457   562 C    1.370   571 H    0.963
                           559 C    0.106
   561   6 C    3.989 --   559 C    1.449   562 C    1.382   572 H    0.969
                           558 C    0.104
   562   6 C    3.902 --   561 C    1.382   560 C    1.370   563 O    1.015
   563   8 O    2.027 --   562 C    1.015   573 H    0.841
   564   8 O    1.716 --   554 C    1.455   555 O    0.175
   565   1 H    0.984 --   552 N    0.921
   566   1 H    1.020 --   553 C    0.970
   567   1 H    1.020 --   556 C    0.964
   568   1 H    1.014 --   556 C    0.973
   569   1 H    1.020 --   558 C    0.968
   570   1 H    1.002 --   559 C    0.973
   571   1 H    1.011 --   560 C    0.963
   572   1 H    0.998 --   561 C    0.969
   573   1 H    0.864 --   563 O    0.841
   574   7 N    3.600 --   575 C    0.940   583 H    0.880   584 H    0.872
                           582 H    0.854
   575   6 C    3.932 --   578 C    0.986   576 C    0.961   585 H    0.954
                           574 N    0.940
   576   6 C    3.905 --   577 O    1.553   590 N    1.313   575 C    0.961
   577   8 O    1.896 --   576 C    1.553   590 N    0.168
   578   6 C    3.990 --   575 C    0.986   579 C    0.981   586 H    0.960
                           587 H    0.950
   579   6 C    3.892 --   580 O    1.525   581 N    1.337   578 C    0.981
   580   8 O    1.897 --   579 C    1.525   581 N    0.161
   581   7 N    3.327 --   579 C    1.337   589 H    0.895   588 H    0.894
                           580 O    0.161
   582   1 H    0.965 --   574 N    0.854
   583   1 H    0.960 --   574 N    0.880
   584   1 H    0.959 --   574 N    0.872
   585   1 H    1.020 --   575 C    0.954
   586   1 H    0.999 --   578 C    0.960
   587   1 H    0.997 --   578 C    0.950
   588   1 H    0.931 --   581 N    0.894
   589   1 H    0.930 --   581 N    0.895
   590   7 N    3.382 --   576 C    1.313   591 C    0.932   597 H    0.877
                           577 O    0.168
   591   6 C    3.939 --   592 C    0.974   598 H    0.968   594 C    0.955
                           590 N    0.932
   592   6 C    3.812 --   593 O    1.814   591 C    0.974   695 H    0.960
   593   8 O    1.966 --   592 C    1.814
   594   6 C    3.986 --   596 C    1.011   595 C    1.002   599 H    0.970
                           591 C    0.955
   595   6 C    3.995 --   594 C    1.002   602 H    0.987   601 H    0.984
                           600 H    0.983
   596   6 C    3.996 --   594 C    1.011   604 H    0.985   605 H    0.984
                           603 H    0.980
   597   1 H    0.951 --   590 N    0.877
   598   1 H    1.010 --   591 C    0.968
   599   1 H    1.011 --   594 C    0.970
   600   1 H    1.004 --   595 C    0.983
   601   1 H    1.003 --   595 C    0.984
   602   1 H    0.999 --   595 C    0.987
   603   1 H    1.007 --   596 C    0.980
   604   1 H    1.001 --   596 C    0.985
   605   1 H    1.006 --   596 C    0.984
   606   7 N    3.594 --   607 C    0.933   616 H    0.883   615 H    0.881
                           614 H    0.847
   607   6 C    3.927 --   608 C    0.998   610 C    0.972   617 H    0.945
                           606 N    0.933
   608   6 C    3.823 --   609 O    1.812   607 C    0.998   696 H    0.957
   609   8 O    1.969 --   608 C    1.812
   610   6 C    3.987 --   611 C    0.973   607 C    0.972   618 H    0.963
                           619 H    0.950
   611   6 C    3.902 --   612 O    1.515   613 N    1.365   610 C    0.973
   612   8 O    1.892 --   611 C    1.515   613 N    0.168
   613   7 N    3.337 --   611 C    1.365   621 H    0.905   620 H    0.836
                           612 O    0.168
   614   1 H    0.960 --   606 N    0.847
   615   1 H    0.942 --   606 N    0.881
   616   1 H    0.946 --   606 N    0.883
   617   1 H    1.022 --   607 C    0.945
   618   1 H    0.992 --   610 C    0.963
   619   1 H    0.993 --   610 C    0.950
   620   1 H    0.943 --   613 N    0.836
   621   1 H    0.940 --   613 N    0.905
   622   7 N    2.939 --   623 C    0.999   630 H    0.945   697 H    0.938
   623   6 C    3.976 --   622 N    0.999   624 C    0.983   631 H    0.956
                           626 C    0.942
   624   6 C    3.818 --   625 O    1.808   623 C    0.983   698 H    0.963
   625   8 O    1.942 --   624 C    1.808
   626   6 C    3.992 --   627 C    0.971   632 H    0.969   633 H    0.961
                           623 C    0.942
   627   6 C    3.888 --   628 O    1.548   629 N    1.317   626 C    0.971
   628   8 O    1.921 --   627 C    1.548   629 N    0.160
   629   7 N    3.318 --   627 C    1.317   635 H    0.911   634 H    0.881
                           628 O    0.160
   630   1 H    0.963 --   622 N    0.945
   631   1 H    1.023 --   623 C    0.956
   632   1 H    1.012 --   626 C    0.969
   633   1 H    1.008 --   626 C    0.961
   634   1 H    0.950 --   629 N    0.881
   635   1 H    0.946 --   629 N    0.911
   636   7 N    2.948 --   637 C    0.984   649 H    0.951   699 H    0.949
   637   6 C    3.958 --   636 N    0.984   650 H    0.958   640 C    0.954
                           638 C    0.927
   638   6 C    3.882 --   648 O    1.470   639 O    1.453   637 C    0.927
   639   8 O    1.706 --   638 C    1.453   648 O    0.176
   640   6 C    3.997 --   641 C    1.014   651 H    0.975   652 H    0.971
                           637 C    0.954
   641   6 C    3.989 --   643 C    1.407   642 C    1.400   640 C    1.014
   642   6 C    3.994 --   644 C    1.457   641 C    1.400   653 H    0.972
                           645 C    0.104
   643   6 C    3.995 --   645 C    1.449   641 C    1.407   654 H    0.971
                           644 C    0.106
   644   6 C    3.990 --   642 C    1.457   646 C    1.366   655 H    0.966
                           643 C    0.106
   645   6 C    3.990 --   643 C    1.449   646 C    1.375   656 H    0.960
                           642 C    0.104
   646   6 C    3.907 --   645 C    1.375   644 C    1.366   647 O    1.026
   647   8 O    2.032 --   646 C    1.026   657 H    0.797
   648   8 O    1.745 --   638 C    1.470   639 O    0.176
   649   1 H    0.977 --   636 N    0.951
   650   1 H    1.029 --   637 C    0.958
   651   1 H    1.008 --   640 C    0.975
   652   1 H    1.015 --   640 C    0.971
   653   1 H    1.006 --   642 C    0.972
   654   1 H    1.006 --   643 C    0.971
   655   1 H    1.005 --   644 C    0.966
   656   1 H    1.014 --   645 C    0.960
   657   1 H    0.883 --   647 O    0.797
   658   7 N    2.933 --   659 C    1.004   700 H    0.940   666 H    0.910
   659   6 C    3.982 --   658 N    1.004   660 C    0.985   667 H    0.962
                           662 C    0.940
   660   6 C    3.816 --   661 O    1.799   659 C    0.985   701 H    0.963
   661   8 O    1.962 --   660 C    1.799
   662   6 C    3.990 --   663 C    0.968   668 H    0.967   669 H    0.967
                           659 C    0.940
   663   6 C    3.893 --   664 O    1.571   665 N    1.313   662 C    0.968
   664   8 O    1.842 --   663 C    1.571   665 N    0.168
   665   7 N    3.315 --   663 C    1.313   671 H    0.899   670 H    0.888
                           664 O    0.168
   666   1 H    0.969 --   658 N    0.910
   667   1 H    1.005 --   659 C    0.962
   668   1 H    1.021 --   662 C    0.967
   669   1 H    1.007 --   662 C    0.967
   670   1 H    0.957 --   665 N    0.888
   671   1 H    0.962 --   665 N    0.899
   672   7 N    2.947 --   673 C    0.984   685 H    0.952   702 H    0.948
   673   6 C    3.960 --   672 N    0.984   686 H    0.970   676 C    0.954
                           674 C    0.929
   674   6 C    3.879 --   675 O    1.463   684 O    1.453   673 C    0.929
   675   8 O    1.715 --   674 C    1.463   684 O    0.174
   676   6 C    3.996 --   677 C    1.013   688 H    0.970   687 H    0.964
                           673 C    0.954
   677   6 C    3.989 --   679 C    1.407   678 C    1.399   676 C    1.013
   678   6 C    3.994 --   680 C    1.458   677 C    1.399   689 H    0.972
                           681 C    0.104
   679   6 C    3.994 --   681 C    1.449   677 C    1.407   690 H    0.971
                           680 C    0.106
   680   6 C    3.990 --   678 C    1.458   682 C    1.365   691 H    0.963
                           679 C    0.106
   681   6 C    3.989 --   679 C    1.449   682 C    1.375   692 H    0.960
                           678 C    0.104
   682   6 C    3.907 --   681 C    1.375   680 C    1.365   683 O    1.026
   683   8 O    2.032 --   682 C    1.026   693 H    0.799
   684   8 O    1.739 --   674 C    1.453   675 O    0.174
   685   1 H    0.978 --   672 N    0.952
   686   1 H    1.020 --   673 C    0.970
   687   1 H    1.018 --   676 C    0.964
   688   1 H    1.015 --   676 C    0.970
   689   1 H    1.008 --   678 C    0.972
   690   1 H    1.005 --   679 C    0.971
   691   1 H    1.011 --   680 C    0.963
   692   1 H    1.011 --   681 C    0.960
   693   1 H    0.882 --   683 O    0.799
   694   1 H    0.953 --     1 N    0.942
   695   1 H    1.006 --   592 C    0.960
   696   1 H    1.004 --   608 C    0.957
   697   1 H    0.949 --   622 N    0.938
   698   1 H    1.012 --   624 C    0.963
   699   1 H    0.966 --   636 N    0.949
   700   1 H    0.951 --   658 N    0.940
   701   1 H    1.011 --   660 C    0.963
   702   1 H    0.966 --   672 N    0.948
   703   1 H    0.961 --   154 N    0.945
   704   1 H    0.959 --   176 N    0.944
   705   1 H    0.949 --   204 N    0.938
   706   1 H    0.952 --   254 N    0.932
   707   1 H    1.012 --   256 C    0.965
   708   1 H    0.952 --   270 N    0.942
   709   1 H    0.950 --   320 N    0.934
   710   1 H    1.010 --   338 C    0.962
   711   1 H    0.954 --   343 N    0.940
   712   1 H    1.011 --   345 C    0.963
   713   1 H    0.944 --   357 N    0.939
   714   1 H    1.007 --   359 C    0.961
   715   1 H    0.955 --   364 N    0.942
   716   1 H    1.009 --   366 C    0.963
   717   1 H    1.004 --   444 C    0.959
   718   1 H    1.010 --   474 C    0.959
   719   1 H    1.005 --   540 C    0.959
   720   1 H    0.969 --   552 N    0.951
 ---------------------------------------------------------------------------

Topologies differ in total number of bonds
Writing topology from bond orders to xtbtopo.mol

 dipole moment from electron density (au)
     X       Y       Z   
  31.5408 -23.0552  -0.6658  total (Debye):   99.317


           -------------------------------------------------
          | TOTAL ENERGY            -1272.506082010048 Eh   |
          | GRADIENT NORM               1.104894727875 Eh/α |
          | HOMO-LUMO GAP               1.127360107644 eV   |
           -------------------------------------------------

------------------------------------------------------------------------
 * finished run on 2022/05/30 at 00:10:41.180     
------------------------------------------------------------------------
 total:
 * wall-time:     0 d,  0 h,  0 min, 43.613 sec
 *  cpu-time:     0 d,  0 h,  0 min, 43.557 sec
 * ratio c/w:     0.999 speedup
 SCF:
 * wall-time:     0 d,  0 h,  0 min, 35.898 sec
 *  cpu-time:     0 d,  0 h,  0 min, 35.858 sec
 * ratio c/w:     0.999 speedup

