      -----------------------------------------------------------      
     |                   =====================                   |     
     |                           x T B                           |     
     |                   =====================                   |     
     |                         S. Grimme                         |     
     |          Mulliken Center for Theoretical Chemistry        |     
     |                    University of Bonn                     |     
      -----------------------------------------------------------      

   * xtb version 6.4.0 (d4b70c2) compiled by 'ehlert@majestix' on 2021-02-01

   xtb is free software: you can redistribute it and/or modify it under
   the terms of the GNU Lesser General Public License as published by
   the Free Software Foundation, either version 3 of the License, or
   (at your option) any later version.
   
   xtb is distributed in the hope that it will be useful,
   but WITHOUT ANY WARRANTY; without even the implied warranty of
   MERCHANTABILITY or FITNESS FOR A PARTICULAR PURPOSE.  See the
   GNU Lesser General Public License for more details.
   
   Cite this work as:
   * C. Bannwarth, E. Caldeweyher, S. Ehlert, A. Hansen, P. Pracht,
     J. Seibert, S. Spicher, S. Grimme, WIREs Comput. Mol. Sci., 2020,
     e01493. DOI: 10.1002/wcms.1493
   
   for GFN2-xTB:
   * C. Bannwarth, S. Ehlert and S. Grimme., J. Chem. Theory Comput., 2019,
     15, 1652-1671. DOI: 10.1021/acs.jctc.8b01176
   for GFN1-xTB:
   * S. Grimme, C. Bannwarth, P. Shushkov, J. Chem. Theory Comput., 2017,
     13, 1989-2009. DOI: 10.1021/acs.jctc.7b00118
   for GFN0-xTB:
   * P. Pracht, E. Caldeweyher, S. Ehlert, S. Grimme, ChemRxiv, 2019, preprint.
     DOI: 10.26434/chemrxiv.8326202.v1
   for GFN-FF:
   * S. Spicher and S. Grimme, Angew. Chem. Int. Ed., 2020, 59, 15665-15673.
     DOI: 10.1002/anie.202004239
   
   for DFT-D4:
   * E. Caldeweyher, C. Bannwarth and S. Grimme, J. Chem. Phys., 2017,
     147, 034112. DOI: 10.1063/1.4993215
   * E. Caldeweyher, S. Ehlert, A. Hansen, H. Neugebauer, S. Spicher,
     C. Bannwarth and S. Grimme, J. Chem. Phys., 2019, 150, 154122.
     DOI: 10.1063/1.5090222
   * E. Caldeweyher, J.-M. Mewes, S. Ehlert and S. Grimme, Phys. Chem. Chem. Phys.
     2020, 22, 8499-8512. DOI: 10.1039/D0CP00502A
   
   for sTDA-xTB:
   * S. Grimme and C. Bannwarth, J. Chem. Phys., 2016, 145, 054103.
     DOI: 10.1063/1.4959605
   
   in the mass-spec context:
   * V. Asgeirsson, C. Bauer and S. Grimme, Chem. Sci., 2017, 8, 4879.
     DOI: 10.1039/c7sc00601b
   * J. Koopman and S. Grimme, ACS Omega 2019, 4, 12, 15120-15133.
     DOI: 10.1021/acsomega.9b02011
   
   for metadynamics refer to:
   * S. Grimme, J. Chem. Theory Comput., 2019, 155, 2847-2862
     DOI: 10.1021/acs.jctc.9b00143
   
   with help from (in alphabetical order)
   P. Atkinson, C. Bannwarth, F. Bohle, G. Brandenburg, E. Caldeweyher
   M. Checinski, S. Dohm, S. Ehlert, S. Ehrlich, I. Gerasimov, J. Koopman
   C. Lavinge, S. Lehtola, F. März, M. Müller, F. Musil, H. Neugebauer
   J. Pisarek, P. Pracht, J. Seibert, P. Shushkov, S. Spicher, M. Stahn
   T. Strunk, J. Stückrath, T. Rose, and J. Unsleber
   
 * started run on 2022/05/30 at 00:26:36.033     

           -------------------------------------------------
          |                Calculation Setup                |
           -------------------------------------------------

          program call               : /home/amax/XTB/xtb-6.4.0/bin/xtb xtb_tmp.xyz --chrg 2 --grad --gfn 1 --gbsa h2o --parallel 1
          hostname                   : amax
          coordinate file            : xtb_tmp.xyz
          omp threads                :                     1
          number of atoms            :                  2001
          number of electrons        :                  5730
          charge                     :                     2
          spin                       :                   0.0
          first test random number   :      0.60051481614064

   ID    Z sym.   atoms
    1    7 N      1, 8, 17, 33, 40, 51, 58, 65, 79, 101, 108, 117, 133, 140,
                  151, 158, 165, 179, 210, 217, 226, 242, 258, 265, 276, 287,
                  301, 323, 345, 367, 374, 383, 390, 399, 406, 415, 431, 438,
                  460, 482, 504, 598, 605, 614, 630, 637, 646, 662, 669, 678,
                  694, 701, 712, 719, 726, 740, 762, 769, 778, 794, 801, 812,
                  819, 828, 844, 851, 858, 867, 883, 890, 901, 908, 915, 929,
                  951, 958, 967, 983, 990, 999, 1015, 1022, 1033, 1049, 1056,
                  1067, 1074, 1081, 1095, 1117, 1124, 1135, 1142, 1149, 1156,
                  1167, 1174, 1181, 1195, 1217, 1228, 1235, 1242, 1256, 1278,
                  1285, 1294, 1310, 1317, 1328, 1335, 1342, 1356, 1378, 1385,
                  1394, 1410, 1417, 1424, 1433, 1449, 1456, 1465, 1481, 1488,
                  1499, 1506, 1513, 1527, 1549, 1556, 1565, 1581, 1588, 1595,
                  1604, 1620, 1627, 1634, 1643, 1659, 1675, 1682, 1693, 1700,
                  1707, 1721, 1743, 1759, 1766, 1777, 1784, 1791, 1805, 1827,
                  1834, 1845, 1852, 1859, 1873, 1895, 1902, 1913, 1920, 1927,
                  1938, 1945
    2    6 C      2, 3, 5, 6, 18, 19, 21-23, 34, 35, 41, 42, 44, 52, 53, 55,
                  56, 66, 67, 69, 71, 80, 81, 83-89, 102, 103, 105, 106, 118,
                  119, 121-123, 134, 135, 141, 142, 144, 152, 153, 155, 156,
                  166, 167, 169, 171, 180, 181, 183-189, 211, 212, 214, 215,
                  227, 228, 230-232, 243, 244, 246-248, 259, 260, 266, 267,
                  269, 277, 278, 280, 288, 289, 291, 293, 302, 303, 305-311,
                  324, 325, 327-333, 346, 347, 349-355, 368, 369, 371, 372,
                  384, 385, 387, 388, 400, 401, 403, 404, 416, 417, 419-421,
                  432, 433, 439, 440, 442-448, 461, 462, 464-470, 483, 484,
                  486-492, 505, 506, 508-514, 599, 600, 602, 603, 615, 616,
                  618-620, 631, 632, 634, 635, 647, 648, 650-652, 663, 664,
                  666, 667, 679, 680, 682-684, 695, 696, 702, 703, 705, 713,
                  714, 716, 717, 727, 728, 730, 732, 741, 742, 744-750, 763,
                  764, 766, 767, 779, 780, 782-784, 795, 796, 802, 803, 805,
                  813, 814, 816, 817, 829, 830, 832-834, 845, 846, 852, 853,
                  855, 856, 868, 869, 871-873, 884, 885, 891, 892, 894, 902,
                  903, 905, 906, 916, 917, 919, 921, 930, 931, 933-939, 952,
                  953, 955, 956, 968, 969, 971-973, 984, 985, 987, 988, 1000,
                  1001, 1003-1005, 1016, 1017, 1023, 1024, 1026, 1034, 1035,
                  1037-1039, 1050, 1051, 1057, 1058, 1060, 1068, 1069, 1071,
                  1072, 1082, 1083, 1085, 1087, 1096, 1097, 1099-1105, 1118,
                  1119, 1125, 1126, 1128, 1136, 1137, 1139, 1140, 1150, 1151,
                  1157, 1158, 1160, 1168, 1169, 1171, 1172, 1182, 1183, 1185,
                  1187, 1196, 1197, 1199-1205, 1218, 1219, 1221, 1229, 1230,
                  1232, 1233, 1243, 1244, 1246, 1248, 1257, 1258, 1260-1266,
                  1279, 1280, 1282, 1283, 1295, 1296, 1298-1300, 1311, 1312,
                  1318, 1319, 1321, 1329, 1330, 1332, 1333, 1343, 1344, 1346,
                  1348, 1357, 1358, 1360-1366, 1379, 1380, 1382, 1383, 1395,
                  1396, 1398-1400, 1411, 1412, 1418, 1419, 1421, 1422, 1434,
                  1435, 1437-1439, 1450, 1451, 1453, 1454, 1466, 1467,
                  1469-1471, 1482, 1483, 1489, 1490, 1492, 1500, 1501, 1503,
                  1504, 1514, 1515, 1517, 1519, 1528, 1529, 1531-1537, 1550,
                  1551, 1553, 1554, 1566, 1567, 1569-1571, 1582, 1583, 1589,
                  1590, 1592, 1593, 1605, 1606, 1608-1610, 1621, 1622, 1628,
                  1629, 1631, 1632, 1644, 1645, 1647-1649, 1660, 1661,
                  1663-1665, 1676, 1677, 1683, 1684, 1686, 1694, 1695, 1697,
                  1698, 1708, 1709, 1711, 1713, 1722, 1723, 1725-1731, 1744,
                  1745, 1747-1749, 1760, 1761, 1767, 1768, 1770, 1778, 1779,
                  1781, 1782, 1792, 1793, 1795, 1797, 1806, 1807, 1809-1815,
                  1828, 1829, 1835, 1836, 1838, 1846, 1847, 1849, 1850, 1860,
                  1861, 1863, 1865, 1874, 1875, 1877-1883, 1896, 1897, 1903,
                  1904, 1906, 1914, 1915, 1917, 1918, 1928, 1929, 1931, 1939,
                  1940, 1942, 1943
    3    8 O      4, 7, 20, 36, 43, 45, 54, 57, 68, 70, 82, 90, 91, 104, 107,
                  120, 136, 143, 145, 154, 157, 168, 170, 182, 190, 191, 201,
                  204, 207, 213, 216, 229, 245, 261, 268, 270, 279, 281, 290,
                  292, 304, 312, 313, 326, 334, 335, 348, 356, 357, 370, 373,
                  386, 389, 402, 405, 418, 434, 441, 449, 450, 463, 471, 472,
                  485, 493, 494, 507, 515, 516, 526, 529, 532, 535, 538, 541,
                  544, 547, 550, 553, 556, 559, 562, 565, 568, 571, 574, 577,
                  580, 583, 586, 589, 592, 595, 601, 604, 617, 633, 636, 649,
                  665, 668, 681, 697, 704, 706, 715, 718, 729, 731, 743, 751,
                  752, 765, 768, 781, 797, 804, 806, 815, 818, 831, 847, 854,
                  857, 870, 886, 893, 895, 904, 907, 918, 920, 932, 940, 941,
                  954, 957, 970, 986, 989, 1002, 1018, 1025, 1027, 1036,
                  1052, 1059, 1061, 1070, 1073, 1084, 1086, 1098, 1106, 1107,
                  1120, 1127, 1129, 1138, 1141, 1152, 1159, 1161, 1170, 1173,
                  1184, 1186, 1198, 1206, 1207, 1220, 1222, 1231, 1234, 1245,
                  1247, 1259, 1267, 1268, 1281, 1284, 1297, 1313, 1320, 1322,
                  1331, 1334, 1345, 1347, 1359, 1367, 1368, 1381, 1384, 1397,
                  1413, 1420, 1423, 1436, 1452, 1455, 1468, 1484, 1491, 1493,
                  1502, 1505, 1516, 1518, 1530, 1538, 1539, 1552, 1555, 1568,
                  1584, 1591, 1594, 1607, 1623, 1630, 1633, 1646, 1662, 1678,
                  1685, 1687, 1696, 1699, 1710, 1712, 1724, 1732, 1733, 1746,
                  1762, 1769, 1771, 1780, 1783, 1794, 1796, 1808, 1816, 1817,
                  1830, 1837, 1839, 1848, 1851, 1862, 1864, 1876, 1884, 1885,
                  1898, 1905, 1907, 1916, 1919, 1930, 1932, 1941, 1944
    4    1 H      9-16, 24-32, 37-39, 46-50, 59-64, 72-78, 92-100, 109-116,
                  124-132, 137-139, 146-150, 159-164, 172-178, 192-200, 202,
                  203, 205, 206, 208, 209, 218-225, 233-241, 249-257,
                  262-264, 271-275, 282-286, 294-300, 314-322, 336-344,
                  358-366, 375-382, 391-398, 407-414, 422-430, 435-437,
                  451-459, 473-481, 495-503, 517-525, 527, 528, 530, 531,
                  533, 534, 536, 537, 539, 540, 542, 543, 545, 546, 548, 549,
                  551, 552, 554, 555, 557, 558, 560, 561, 563, 564, 566, 567,
                  569, 570, 572, 573, 575, 576, 578, 579, 581, 582, 584, 585,
                  587, 588, 590, 591, 593, 594, 596, 597, 606-613, 621-629,
                  638-645, 653-661, 670-677, 685-693, 698-700, 707-711,
                  720-725, 733-739, 753-761, 770-777, 785-793, 798-800,
                  807-811, 820-827, 835-843, 848-850, 859-866, 874-882,
                  887-889, 896-900, 909-914, 922-928, 942-950, 959-966,
                  974-982, 991-998, 1006-1014, 1019-1021, 1028-1032,
                  1040-1048, 1053-1055, 1062-1066, 1075-1080, 1088-1094,
                  1108-1116, 1121-1123, 1130-1134, 1143-1148, 1153-1155,
                  1162-1166, 1175-1180, 1188-1194, 1208-1216, 1223-1227,
                  1236-1241, 1249-1255, 1269-1277, 1286-1293, 1301-1309,
                  1314-1316, 1323-1327, 1336-1341, 1349-1355, 1369-1377,
                  1386-1393, 1401-1409, 1414-1416, 1425-1432, 1440-1448,
                  1457-1464, 1472-1480, 1485-1487, 1494-1498, 1507-1512,
                  1520-1526, 1540-1548, 1557-1564, 1572-1580, 1585-1587,
                  1596-1603, 1611-1619, 1624-1626, 1635-1642, 1650-1658,
                  1666-1674, 1679-1681, 1688-1692, 1701-1706, 1714-1720,
                  1734-1742, 1750-1758, 1763-1765, 1772-1776, 1785-1790,
                  1798-1804, 1818-1826, 1831-1833, 1840-1844, 1853-1858,
                  1866-1872, 1886-1894, 1899-1901, 1908-1912, 1921-1926,
                  1933-1937, 1946-2001

molecular fragmentation (1/2 indicates fragments):
111111111111111111111111111111111111111111111111111111111111111111111111
111111111111111111111111111122222222222222222222222222222222222222222222
222222222222222222222222222222222222222222222222222222222222222222222222
222222222222222222222222222222222222222222222222222222222222222222222222
222222222222222222222222222222222222222222222222222222222222222222222222
222222222222222222222222222222222222222222222222222222222222222222222222
222222222222222222222222222222222222222222222222222222222222222222222222
222222222222222222222222222222222222222222222222222222222222222222222222
222222222222222222222222222222222222222222222222222222222222222222222222
222222222222222222222222222222222222222222222222222222222222222222222222
222222222222222222222222222222222222222222222222222222222222222222222222
222222222222222222222222222222222222222222222222222222222222222222222222
222222222222222222222222222222222222222222222222222222222222222222222222
222222222222222222222222222222222222222222222222222222222222222222222222
222222222222222222222222222222222222222222222222222222222222222222222222
222222222222222222222222222222222222222222222222222222222222222222222222
222222222222222222222222222222222222222222222222222222222222222222222222
222222222222222222222222222222222222222222222222222222222222222222222222
222222222222222222222222222222222222222222222222222222222222222222222222
222222222222222222222222222222222222222222222222222222222222222222222222
222222222222222222222222222222222222222222222222222222222222222222222222
222222222222222222222222222222222222222222222222222222222222222222222222
222222222222222222222222222222222222222222222222222222222222222222222222
222222222222222222222222222222222222222222222222222222222222222222222222
222222222222222222222222222222222222222222222222222222222222222222222222
222222222222222222222222222222222222222222222222222222222222222222222222
222222222222222222222222222222222222222222222222222222222222222222222222
222222222222222222222222222222222222222222222222222222222
# atoms in fragment 1/2:   100  1901
 fragment masses (1/2) :      753.76    13784.29
CMA distance (Bohr)    :  10.141
constraining FC (au)   :  0.0500

           -------------------------------------------------
          |                 G F N 1 - x T B                 |
           -------------------------------------------------

        Reference                      10.1021/acs.jctc.7b00118
      * Hamiltonian:
        H0-scaling (s, p, d)           1.850000    2.250000    2.000000
        zeta-weighting                 0.000000
      * Dispersion:
        s8                             2.400000
        a1                             0.630000
        a2                             5.000000
        s9                             0.000000
      * Repulsion:
        kExp                           1.500000
        rExp                           1.000000
      * Coulomb:
        alpha                          2.000000
        third order                    atomic
        anisotropic                    false
      * Halogen bond correction:
        rad-scale                      1.300000
        damping                        0.440000

      * Solvation model:               GBSA
        Solvent                        h2o
        Parameter file                 internal GFN1-xTB/GBSA
        Dielectric constant                7.8500E+01
        Reference state                gsolv [1 M gas/solution]
        Free energy shift                  2.0755E-03 Eh       1.3024E+00 kcal/mol
        Temperature                        2.9815E+02 K
        Density                            9.9800E-01 kg/L
        Solvent mass                       1.8000E+01 g/mol
        Interaction kernel             Still
        Born radius scaling (c1)           1.5808E+00
        Born radii integrator          GBOBC
        Born offset                        1.3596E-02 a0       2.5692E-02 AA
        H-bond correction              true
        Ion screening                  false
        Surface tension                    1.0000E-05 Eh       1.5569E+01 dyn/cm
        Grid points                               230 per atom

          ...................................................
          :                      SETUP                      :
          :.................................................:
          :  # basis functions                6026          :
          :  # atomic orbitals                6026          :
          :  # shells                         4002          :
          :  # electrons                      5730          :
          :  # halogen bonds                     0          :
          :  max. iterations                   250          :
          :  Hamiltonian                  GFN1-xTB          :
          :  restarted?                      false          :
          :  GBSA solvation                   true          :
          :  PC potential                    false          :
          :  electronic temp.          300.0000000     K    :
          :  accuracy                    1.0000000          :
          :  -> integral cutoff          0.2500000E+02      :
          :  -> integral neglect         0.1000000E-07      :
          :  -> SCF convergence          0.1000000E-05 Eh   :
          :  -> wf. convergence          0.2000000E-04 e    :
          :  Broyden damping             0.4000000          :
          ...................................................

 iter      E             dE          RMSdq      gap      omega  full diag
   1  -3562.5040269 -0.356250E+04  0.812E+00    2.21       0.0  T
   2  -3576.4267085 -0.139227E+02  0.481E+00    1.43       1.0  T
   3  -3576.3619263  0.647823E-01  0.136E+00    0.67       1.0  T
   4  -3576.8081058 -0.446180E+00  0.148E-01    0.26       1.0  T
   5  -3576.8353468 -0.272409E-01  0.320E-02    0.44       1.0  T
   6  -3576.8366043 -0.125757E-02  0.751E-03    0.42       1.0  T
   7  -3576.8366655 -0.611385E-04  0.273E-03    0.42       1.0  T
   8  -3576.8366699 -0.445664E-05  0.812E-04    0.42       2.8  T
   9  -3576.8366702 -0.306886E-06  0.232E-04    0.42       9.6  T
  10  -3576.8366702 -0.217487E-07  0.568E-05    0.42      39.4  T
  11  -3576.8366702 -0.141654E-08  0.196E-05    0.42     113.9  T

   *** convergence criteria satisfied after 11 iterations ***

         #    Occupation            Energy/Eh            Energy/eV
      -------------------------------------------------------------
         1        2.0000           -0.8802550             -23.9530
       ...           ...                  ...                  ...
      2859        2.0000           -0.3876111             -10.5474
      2860        2.0000           -0.3861823             -10.5086
      2861        2.0000           -0.3805980             -10.3566
      2862        2.0000           -0.3795410             -10.3278
      2863        2.0000           -0.3793054             -10.3214
      2864        2.0000           -0.3782320             -10.2922
      2865        1.9994           -0.3702896             -10.0761 (HOMO)
      2866        0.0005           -0.3547066              -9.6521 (LUMO)
      2867        0.0000           -0.3519501              -9.5770
      2868        0.0000           -0.3469143              -9.4400
      2869                         -0.3330563              -9.0629
      2870                         -0.3325939              -9.0503
       ...                                ...                  ...
      6026                          0.9676462              26.3310
      -------------------------------------------------------------
                  HL-Gap            0.0155831 Eh            0.4240 eV
             Fermi-level           -0.3625235 Eh           -9.8648 eV

 SCC (total)                   0 d,  0 h, 10 min, 21.720 sec
 SCC setup                      ...        0 min,  0.815 sec (  0.131%)
 Dispersion                     ...        0 min,  0.366 sec (  0.059%)
 classical contributions        ...        0 min,  0.095 sec (  0.015%)
 integral evaluation            ...        1 min,  2.892 sec ( 10.116%)
 iterations                     ...        8 min, 41.795 sec ( 83.928%)
 molecular gradient             ...        0 min, 31.019 sec (  4.989%)
 printout                       ...        0 min,  4.738 sec (  0.762%)

         :::::::::::::::::::::::::::::::::::::::::::::::::::::
         ::                     SUMMARY                     ::
         :::::::::::::::::::::::::::::::::::::::::::::::::::::
         :: total energy           -3540.588555127436 Eh    ::
         :: total w/o Gsasa/hb     -3540.484664551465 Eh    ::
         :: gradient norm              2.133845882370 Eh/a0 ::
         :: HOMO-LUMO gap              0.424036872883 eV    ::
         ::.................................................::
         :: SCC energy             -3576.836670247743 Eh    ::
         :: -> electrostatic          18.764450384820 Eh    ::
         :: -> Gsolv                  -2.162383040714 Eh    ::
         ::    -> Gborn               -2.058492464743 Eh    ::
         ::    -> Gsasa                0.201023181796 Eh    ::
         ::    -> Ghb                 -0.306989228407 Eh    ::
         ::    -> Gshift               0.002075470640 Eh    ::
         :: repulsion energy          38.690070382908 Eh    ::
         :: dispersion energy         -2.441955262601 Eh    ::
         :: halogen bond corr.         0.000000000000 Eh    ::
         :: add. restraining           0.000000000000 Eh    ::
         :: total charge               2.000000000000 e     ::
         :::::::::::::::::::::::::::::::::::::::::::::::::::::

           -------------------------------------------------
          |                Property Printout                |
           -------------------------------------------------

    * Orbital Energies and Occupations

         #    Occupation            Energy/Eh            Energy/eV
      -------------------------------------------------------------
         1        2.0000           -0.8802550             -23.9530
       ...           ...                  ...                  ...
      2853        2.0000           -0.3981518             -10.8343
      2854        2.0000           -0.3961327             -10.7793
      2855        2.0000           -0.3936031             -10.7105
      2856        2.0000           -0.3904797             -10.6255
      2857        2.0000           -0.3894115             -10.5964
      2858        2.0000           -0.3876769             -10.5492
      2859        2.0000           -0.3876111             -10.5474
      2860        2.0000           -0.3861823             -10.5086
      2861        2.0000           -0.3805980             -10.3566
      2862        2.0000           -0.3795410             -10.3278
      2863        2.0000           -0.3793054             -10.3214
      2864        2.0000           -0.3782320             -10.2922
      2865        1.9994           -0.3702896             -10.0761 (HOMO)
      2866        0.0005           -0.3547066              -9.6521 (LUMO)
      2867        0.0000           -0.3519501              -9.5770
      2868        0.0000           -0.3469143              -9.4400
      2869                         -0.3330563              -9.0629
      2870                         -0.3325939              -9.0503
      2871                         -0.3322817              -9.0418
      2872                         -0.3291818              -8.9575
      2873                         -0.3259242              -8.8688
      2874                         -0.3246537              -8.8343
      2875                         -0.3242073              -8.8221
      2876                         -0.3235235              -8.8035
       ...                                ...                  ...
      6026                          0.9676462              26.3310
      -------------------------------------------------------------
                  HL-Gap            0.0155831 Eh            0.4240 eV
             Fermi-level           -0.3625235 Eh           -9.8648 eV

  Mulliken/CM5 charges         n(s)   n(p)   n(d)
     1N    -0.19649 -0.80143   1.457  3.739  0.000
     2C     0.08317  0.07791   1.044  2.873  0.000
     3C     0.47782  0.57954   0.985  2.537  0.000
     4O    -0.59618 -0.67630   1.725  4.871  0.000
     5C    -0.08876 -0.17913   1.047  3.042  0.000
     6C     0.48029  0.57264   0.991  2.529  0.000
     7O    -0.63880 -0.71093   1.734  4.905  0.000
     8N    -0.40706 -0.87030   1.432  3.975  0.000
     9H     0.27650  0.47540   0.723  0.000  0.000
    10H     0.27301  0.46761   0.727  0.000  0.000
    11H     0.27668  0.47942   0.723  0.000  0.000
    12H     0.07955  0.16823   0.920  0.000  0.000
    13H     0.07493  0.14399   0.925  0.000  0.000
    14H     0.07366  0.13875   0.926  0.000  0.000
    15H     0.28300  0.50294   0.717  0.000  0.000
    16H     0.25956  0.46026   0.740  0.000  0.000
    17N    -0.30981 -0.67953   1.427  3.883  0.000
    18C     0.08936  0.09445   1.041  2.869  0.000
    19C     0.46644  0.57138   0.996  2.538  0.000
    20O    -0.61468 -0.67525   1.733  4.882  0.000
    21C    -0.00092 -0.06987   1.056  2.945  0.000
    22C    -0.08700 -0.23770   1.014  3.073  0.000
    23C    -0.07847 -0.22855   1.015  3.064  0.000
    24H     0.25823  0.46341   0.742  0.000  0.000
    25H     0.06123  0.14881   0.939  0.000  0.000
    26H     0.02747  0.09195   0.973  0.000  0.000
    27H     0.03623  0.08970   0.964  0.000  0.000
    28H     0.02762  0.08471   0.972  0.000  0.000
    29H     0.03486  0.09046   0.965  0.000  0.000
    30H     0.02868  0.08290   0.971  0.000  0.000
    31H     0.03479  0.09338   0.965  0.000  0.000
    32H     0.03877  0.10062   0.961  0.000  0.000
    33N    -0.31816 -0.68679   1.427  3.891  0.000
    34C     0.06195  0.02552   1.017  2.921  0.000
    35C     0.47456  0.57424   0.996  2.530  0.000
    36O    -0.59405 -0.67630   1.727  4.867  0.000
    37H     0.26386  0.46792   0.736  0.000  0.000
    38H     0.08846  0.17297   0.912  0.000  0.000
    39H     0.06010  0.13648   0.940  0.000  0.000
    40N    -0.32123 -0.67337   1.428  3.893  0.000
    41C     0.08726  0.09110   1.043  2.870  0.000
    42C     0.46747  0.57237   0.992  2.540  0.000
    43O    -0.59833 -0.66497   1.730  4.868  0.000
    44C     0.19954  0.11948   0.996  2.805  0.000
    45O    -0.59748 -0.81737   1.704  4.894  0.000
    46H     0.25274  0.45451   0.747  0.000  0.000
    47H     0.05673  0.14045   0.943  0.000  0.000
    48H     0.04088  0.11286   0.959  0.000  0.000
    49H     0.04558  0.11649   0.954  0.000  0.000
    50H     0.36074  0.53340   0.639  0.000  0.000
    51N    -0.32148 -0.68112   1.428  3.894  0.000
    52C     0.11136  0.11624   1.035  2.854  0.000
    53C     0.47129  0.57566   0.990  2.538  0.000
    54O    -0.61105 -0.67293   1.729  4.882  0.000
    55C    -0.08897 -0.17857   1.047  3.042  0.000
    56C     0.48878  0.58338   0.989  2.522  0.000
    57O    -0.60601 -0.68028   1.722  4.884  0.000
    58N    -0.39019 -0.84959   1.424  3.966  0.000
    59H     0.25980  0.47463   0.740  0.000  0.000
    60H     0.06355  0.14849   0.936  0.000  0.000
    61H     0.05749  0.13082   0.943  0.000  0.000
    62H     0.05702  0.12193   0.943  0.000  0.000
    63H     0.26032  0.46181   0.740  0.000  0.000
    64H     0.24982  0.45011   0.750  0.000  0.000
    65N    -0.32078 -0.68263   1.431  3.889  0.000
    66C     0.08056  0.08777   1.041  2.878  0.000
    67C     0.47406  0.57948   0.989  2.537  0.000
    68O    -0.60576 -0.67583   1.728  4.878  0.000
    69C     0.22877  0.18589   1.017  2.754  0.000
    70O    -0.59349 -0.82299   1.711  4.883  0.000
    71C    -0.10353 -0.25105   1.019  3.084  0.000
    72H     0.26052  0.46929   0.739  0.000  0.000
    73H     0.06245  0.15289   0.938  0.000  0.000
    74H     0.01591  0.08722   0.984  0.000  0.000
    75H     0.36836  0.56063   0.632  0.000  0.000
    76H     0.03248  0.09019   0.968  0.000  0.000
    77H     0.03043  0.08891   0.970  0.000  0.000
    78H     0.04634  0.11189   0.954  0.000  0.000
    79N    -0.31407 -0.67317   1.430  3.884  0.000
    80C     0.08774  0.08723   1.047  2.865  0.000
    81C     0.57848  0.64151   0.965  2.457  0.000
    82O    -0.66794 -0.75370   1.728  4.940  0.000
    83C    -0.04434 -0.14133   1.037  3.007  0.000
    84C    -0.00776 -0.02285   1.084  2.924  0.000
    85C    -0.03633 -0.09011   1.063  2.973  0.000
    86C    -0.03249 -0.08761   1.061  2.972  0.000
    87C    -0.07771 -0.13068   1.056  3.021  0.000
    88C    -0.08974 -0.14359   1.063  3.027  0.000
    89C     0.25245  0.26123   1.021  2.727  0.000
    90O    -0.55755 -0.76921   1.708  4.849  0.000
    91O    -0.70139 -0.76144   1.744  4.958  0.000
    92H     0.25370  0.45871   0.746  0.000  0.000
    93H     0.04326  0.12436   0.957  0.000  0.000
    94H     0.03784  0.10124   0.962  0.000  0.000
    95H     0.03916  0.09861   0.961  0.000  0.000
    96H     0.02882  0.09324   0.971  0.000  0.000
    97H     0.03002  0.08824   0.970  0.000  0.000
    98H     0.03747  0.09971   0.963  0.000  0.000
    99H     0.04026  0.10242   0.960  0.000  0.000
   100H     0.37947  0.57132   0.621  0.000  0.000
   101N    -0.20117 -0.80420   1.459  3.742  0.000
   102C     0.08618  0.08054   1.042  2.872  0.000
   103C     0.47667  0.57949   0.984  2.540  0.000
   104O    -0.60117 -0.66904   1.725  4.877  0.000
   105C    -0.08868 -0.17900   1.045  3.044  0.000
   106C     0.48302  0.57566   0.987  2.530  0.000
   107O    -0.63293 -0.70468   1.729  4.904  0.000
   108N    -0.40592 -0.87286   1.432  3.974  0.000
   109H     0.28046  0.48094   0.720  0.000  0.000
   110H     0.27195  0.46539   0.728  0.000  0.000
   111H     0.27689  0.47747   0.723  0.000  0.000
   112H     0.07745  0.16337   0.923  0.000  0.000
   113H     0.07519  0.14589   0.925  0.000  0.000
   114H     0.06982  0.13558   0.930  0.000  0.000
   115H     0.27808  0.49311   0.722  0.000  0.000
   116H     0.26816  0.47336   0.732  0.000  0.000
   117N    -0.31647 -0.68008   1.428  3.888  0.000
   118C     0.08918  0.09304   1.043  2.868  0.000
   119C     0.46692  0.57146   0.995  2.538  0.000
   120O    -0.61597 -0.68282   1.728  4.888  0.000
   121C     0.00080 -0.06755   1.058  2.942  0.000
   122C    -0.08491 -0.23460   1.015  3.070  0.000
   123C    -0.08192 -0.23092   1.010  3.072  0.000
   124H     0.25860  0.46436   0.741  0.000  0.000
   125H     0.05388  0.13814   0.946  0.000  0.000
   126H     0.02704  0.09153   0.973  0.000  0.000
   127H     0.04404  0.09750   0.956  0.000  0.000
   128H     0.02681  0.08386   0.973  0.000  0.000
   129H     0.03299  0.08723   0.967  0.000  0.000
   130H     0.03948  0.09263   0.961  0.000  0.000
   131H     0.03437  0.08880   0.966  0.000  0.000
   132H     0.03701  0.09442   0.963  0.000  0.000
   133N    -0.32853 -0.69493   1.432  3.897  0.000
   134C     0.06537  0.02839   1.016  2.919  0.000
   135C     0.47473  0.57586   0.992  2.533  0.000
   136O    -0.59757 -0.67669   1.727  4.870  0.000
   137H     0.27390  0.48547   0.726  0.000  0.000
   138H     0.08177  0.16384   0.918  0.000  0.000
   139H     0.05580  0.13165   0.944  0.000  0.000
   140N    -0.31409 -0.66875   1.425  3.889  0.000
   141C     0.08998  0.09493   1.039  2.871  0.000
   142C     0.46644  0.57095   0.993  2.540  0.000
   143O    -0.60036 -0.67315   1.728  4.872  0.000
   144C     0.20709  0.12809   0.989  2.804  0.000
   145O    -0.60184 -0.82061   1.701  4.901  0.000
   146H     0.24704  0.44814   0.753  0.000  0.000
   147H     0.05044  0.13497   0.950  0.000  0.000
   148H     0.03481  0.10836   0.965  0.000  0.000
   149H     0.03987  0.11328   0.960  0.000  0.000
   150H     0.35612  0.53325   0.644  0.000  0.000
   151N    -0.32311 -0.68196   1.430  3.893  0.000
   152C     0.11133  0.11593   1.037  2.852  0.000
   153C     0.46957  0.57400   0.990  2.540  0.000
   154O    -0.60839 -0.67084   1.726  4.883  0.000
   155C    -0.08618 -0.17560   1.047  3.039  0.000
   156C     0.48656  0.57913   0.994  2.519  0.000
   157O    -0.60489 -0.68081   1.725  4.880  0.000
   158N    -0.39023 -0.84589   1.424  3.966  0.000
   159H     0.26008  0.47600   0.740  0.000  0.000
   160H     0.06150  0.14716   0.939  0.000  0.000
   161H     0.05570  0.12940   0.944  0.000  0.000
   162H     0.05662  0.12143   0.943  0.000  0.000
   163H     0.25663  0.45664   0.743  0.000  0.000
   164H     0.24785  0.44620   0.752  0.000  0.000
   165N    -0.31608 -0.67643   1.429  3.887  0.000
   166C     0.08658  0.09369   1.040  2.873  0.000
   167C     0.47180  0.57692   0.988  2.541  0.000
   168O    -0.60744 -0.67643   1.727  4.881  0.000
   169C     0.22775  0.18472   1.022  2.751  0.000
   170O    -0.59883 -0.81253   1.711  4.888  0.000
   171C    -0.09214 -0.23936   1.016  3.076  0.000
   172H     0.25686  0.46389   0.743  0.000  0.000
   173H     0.05597  0.14404   0.944  0.000  0.000
   174H     0.02923  0.10239   0.971  0.000  0.000
   175H     0.36178  0.54796   0.638  0.000  0.000
   176H     0.04077  0.10004   0.959  0.000  0.000
   177H     0.03659  0.09503   0.963  0.000  0.000
   178H     0.02385  0.08350   0.976  0.000  0.000
   179N    -0.32926 -0.68747   1.435  3.894  0.000
   180C     0.09571  0.09493   1.044  2.860  0.000
   181C     0.57835  0.64095   0.961  2.461  0.000
   182O    -0.67731 -0.75583   1.736  4.942  0.000
   183C    -0.03597 -0.13318   1.032  3.004  0.000
   184C    -0.00520 -0.02045   1.081  2.924  0.000
   185C    -0.03426 -0.08817   1.060  2.974  0.000
   186C    -0.03020 -0.08542   1.059  2.971  0.000
   187C    -0.08121 -0.13452   1.055  3.026  0.000
   188C    -0.08712 -0.14107   1.059  3.028  0.000
   189C     0.24936  0.25854   1.021  2.730  0.000
   190O    -0.55760 -0.76776   1.705  4.852  0.000
   191O    -0.67920 -0.74653   1.738  4.942  0.000
   192H     0.25797  0.47066   0.742  0.000  0.000
   193H     0.03903  0.11988   0.961  0.000  0.000
   194H     0.03122  0.09510   0.969  0.000  0.000
   195H     0.03937  0.10205   0.961  0.000  0.000
   196H     0.02684  0.09181   0.973  0.000  0.000
   197H     0.02834  0.08680   0.972  0.000  0.000
   198H     0.03423  0.09747   0.966  0.000  0.000
   199H     0.03483  0.09924   0.965  0.000  0.000
   200H     0.37470  0.56630   0.625  0.000  0.000
   201O    -0.73285 -1.21803   1.660  5.073  0.000
   202H     0.37494  0.62733   0.625  0.000  0.000
   203H     0.37463  0.62094   0.625  0.000  0.000
   204O    -0.71404 -1.19139   1.654  5.060  0.000
   205H     0.36813  0.60135   0.632  0.000  0.000
   206H     0.36922  0.60834   0.631  0.000  0.000
   207O    -0.72201 -1.18777   1.649  5.073  0.000
   208H     0.35317  0.58853   0.647  0.000  0.000
   209H     0.36065  0.60426   0.639  0.000  0.000
   210N    -0.19570 -0.80038   1.458  3.738  0.000
   211C     0.08620  0.07380   1.043  2.871  0.000
   212C     0.39956  0.37066   1.056  2.545  0.000
   213O    -0.49234 -0.58321   1.736  4.757  0.000
   214C    -0.08921 -0.18031   1.049  3.040  0.000
   215C     0.48078  0.57368   0.990  2.529  0.000
   216O    -0.62139 -0.68243   1.735  4.887  0.000
   217N    -0.39735 -0.85322   1.426  3.971  0.000
   218H     0.28471  0.48317   0.715  0.000  0.000
   219H     0.27761  0.47190   0.722  0.000  0.000
   220H     0.28277  0.48543   0.717  0.000  0.000
   221H     0.09009  0.16466   0.910  0.000  0.000
   222H     0.08642  0.15471   0.914  0.000  0.000
   223H     0.08926  0.15046   0.911  0.000  0.000
   224H     0.26835  0.45738   0.732  0.000  0.000
   225H     0.27345  0.47245   0.727  0.000  0.000
   226N    -0.52597 -1.04073   1.441  4.085  0.000
   227C     0.09045  0.08197   1.037  2.872  0.000
   228C     0.38223  0.35484   1.060  2.558  0.000
   229O    -0.52780 -0.58650   1.747  4.780  0.000
   230C    -0.00620 -0.07636   1.058  2.948  0.000
   231C    -0.09706 -0.24760   1.015  3.082  0.000
   232C    -0.09174 -0.24279   1.017  3.075  0.000
   233H     0.21475  0.40392   0.785  0.000  0.000
   234H     0.02952  0.09950   0.970  0.000  0.000
   235H     0.03236  0.09613   0.968  0.000  0.000
   236H     0.03875  0.09196   0.961  0.000  0.000
   237H     0.03395  0.08871   0.966  0.000  0.000
   238H     0.03251  0.08580   0.967  0.000  0.000
   239H     0.03386  0.08785   0.966  0.000  0.000
   240H     0.03260  0.08648   0.967  0.000  0.000
   241H     0.04262  0.10126   0.957  0.000  0.000
   242N    -0.52354 -1.03983   1.441  4.083  0.000
   243C     0.09218  0.08360   1.037  2.871  0.000
   244C     0.38926  0.36128   1.063  2.548  0.000
   245O    -0.52137 -0.59769   1.742  4.779  0.000
   246C    -0.00571 -0.07548   1.058  2.947  0.000
   247C    -0.10200 -0.25156   1.015  3.087  0.000
   248C    -0.09444 -0.24404   1.015  3.079  0.000
   249H     0.21830  0.41692   0.782  0.000  0.000
   250H     0.02731  0.09732   0.973  0.000  0.000
   251H     0.03085  0.09477   0.969  0.000  0.000
   252H     0.04019  0.09250   0.960  0.000  0.000
   253H     0.03304  0.08764   0.967  0.000  0.000
   254H     0.03227  0.08542   0.968  0.000  0.000
   255H     0.03788  0.09032   0.962  0.000  0.000
   256H     0.03186  0.08548   0.968  0.000  0.000
   257H     0.04536  0.10394   0.955  0.000  0.000
   258N    -0.52972 -1.04294   1.440  4.090  0.000
   259C     0.06261  0.01361   1.011  2.926  0.000
   260C     0.37792  0.34728   1.055  2.567  0.000
   261O    -0.55453 -0.61099   1.747  4.808  0.000
   262H     0.21588  0.41287   0.784  0.000  0.000
   263H     0.07854  0.15992   0.921  0.000  0.000
   264H     0.02520  0.09709   0.975  0.000  0.000
   265N    -0.52239 -1.02711   1.442  4.081  0.000
   266C     0.07918  0.06975   1.042  2.879  0.000
   267C     0.38567  0.35975   1.062  2.553  0.000
   268O    -0.53255 -0.58897   1.747  4.786  0.000
   269C     0.19032  0.11077   0.994  2.816  0.000
   270O    -0.60202 -0.81376   1.703  4.899  0.000
   271H     0.22751  0.41346   0.772  0.000  0.000
   272H     0.05007  0.12168   0.950  0.000  0.000
   273H     0.03358  0.10180   0.966  0.000  0.000
   274H     0.03102  0.09692   0.969  0.000  0.000
   275H     0.36536  0.53062   0.635  0.000  0.000
   276N    -0.52058 -1.02761   1.441  4.079  0.000
   277C     0.08273  0.07335   1.041  2.876  0.000
   278C     0.38613  0.36022   1.061  2.553  0.000
   279O    -0.52929 -0.58574   1.747  4.783  0.000
   280C     0.19456  0.11438   0.995  2.811  0.000
   281O    -0.59753 -0.81815   1.703  4.894  0.000
   282H     0.21726  0.40427   0.783  0.000  0.000
   283H     0.04566  0.11875   0.954  0.000  0.000
   284H     0.03024  0.09940   0.970  0.000  0.000
   285H     0.03671  0.10525   0.963  0.000  0.000
   286H     0.35910  0.53166   0.641  0.000  0.000
   287N    -0.52829 -1.03747   1.442  4.086  0.000
   288C     0.08340  0.07744   1.039  2.877  0.000
   289C     0.39462  0.36887   1.056  2.549  0.000
   290O    -0.51024 -0.59247   1.738  4.772  0.000
   291C     0.21997  0.17650   1.023  2.757  0.000
   292O    -0.60822 -0.81485   1.709  4.899  0.000
   293C    -0.10688 -0.25477   1.021  3.086  0.000
   294H     0.22478  0.42697   0.775  0.000  0.000
   295H     0.03487  0.10564   0.965  0.000  0.000
   296H     0.02896  0.09774   0.971  0.000  0.000
   297H     0.36531  0.53212   0.635  0.000  0.000
   298H     0.03639  0.09328   0.964  0.000  0.000
   299H     0.04139  0.09964   0.959  0.000  0.000
   300H     0.04632  0.11163   0.954  0.000  0.000
   301N    -0.53187 -1.03837   1.438  4.094  0.000
   302C     0.08305  0.07698   1.045  2.872  0.000
   303C     0.57322  0.63626   0.969  2.458  0.000
   304O    -0.67853 -0.76417   1.729  4.949  0.000
   305C    -0.04821 -0.14597   1.038  3.011  0.000
   306C    -0.00626 -0.02178   1.086  2.920  0.000
   307C    -0.03759 -0.09209   1.062  2.975  0.000
   308C    -0.03342 -0.08757   1.060  2.973  0.000
   309C    -0.07907 -0.13033   1.054  3.026  0.000
   310C    -0.09137 -0.14398   1.063  3.029  0.000
   311C     0.24839  0.25917   1.018  2.734  0.000
   312O    -0.56710 -0.75962   1.707  4.860  0.000
   313O    -0.71571 -0.77389   1.745  4.970  0.000
   314H     0.20020  0.38736   0.800  0.000  0.000
   315H     0.02234  0.09607   0.978  0.000  0.000
   316H     0.03218  0.09491   0.968  0.000  0.000
   317H     0.03059  0.08988   0.969  0.000  0.000
   318H     0.03004  0.08978   0.970  0.000  0.000
   319H     0.03205  0.08984   0.968  0.000  0.000
   320H     0.03730  0.09692   0.963  0.000  0.000
   321H     0.04347  0.10396   0.957  0.000  0.000
   322H     0.38149  0.54831   0.619  0.000  0.000
   323N    -0.53102 -1.03773   1.438  4.093  0.000
   324C     0.08339  0.07667   1.047  2.870  0.000
   325C     0.57193  0.63462   0.970  2.458  0.000
   326O    -0.68233 -0.76806   1.730  4.952  0.000
   327C    -0.05720 -0.15462   1.038  3.019  0.000
   328C    -0.00896 -0.02437   1.084  2.924  0.000
   329C    -0.04302 -0.09715   1.063  2.980  0.000
   330C    -0.03386 -0.08827   1.060  2.974  0.000
   331C    -0.08412 -0.13520   1.054  3.030  0.000
   332C    -0.08866 -0.14180   1.062  3.026  0.000
   333C     0.25136  0.26215   1.019  2.730  0.000
   334O    -0.57471 -0.76765   1.708  4.866  0.000
   335O    -0.70969 -0.76976   1.745  4.965  0.000
   336H     0.20060  0.38733   0.799  0.000  0.000
   337H     0.02608  0.10088   0.974  0.000  0.000
   338H     0.02910  0.08918   0.971  0.000  0.000
   339H     0.02997  0.08909   0.970  0.000  0.000
   340H     0.03234  0.09128   0.968  0.000  0.000
   341H     0.02868  0.08681   0.971  0.000  0.000
   342H     0.03764  0.09684   0.962  0.000  0.000
   343H     0.03765  0.10111   0.962  0.000  0.000
   344H     0.37339  0.56272   0.627  0.000  0.000
   345N    -0.52891 -1.03597   1.437  4.092  0.000
   346C     0.08605  0.07929   1.046  2.868  0.000
   347C     0.57412  0.63682   0.969  2.457  0.000
   348O    -0.67913 -0.76490   1.729  4.950  0.000
   349C    -0.04758 -0.14554   1.038  3.010  0.000
   350C    -0.00276 -0.01867   1.086  2.916  0.000
   351C    -0.03564 -0.09025   1.063  2.973  0.000
   352C    -0.03093 -0.08608   1.061  2.970  0.000
   353C    -0.07564 -0.12720   1.054  3.022  0.000
   354C    -0.09499 -0.14841   1.063  3.032  0.000
   355C     0.24627  0.25589   1.019  2.735  0.000
   356O    -0.55770 -0.75568   1.706  4.851  0.000
   357O    -0.71114 -0.77121   1.745  4.966  0.000
   358H     0.19822  0.38539   0.802  0.000  0.000
   359H     0.02224  0.09705   0.978  0.000  0.000
   360H     0.03125  0.09398   0.969  0.000  0.000
   361H     0.02921  0.08862   0.971  0.000  0.000
   362H     0.03123  0.09097   0.969  0.000  0.000
   363H     0.03309  0.09127   0.967  0.000  0.000
   364H     0.03968  0.09933   0.960  0.000  0.000
   365H     0.04341  0.10301   0.957  0.000  0.000
   366H     0.37507  0.54257   0.625  0.000  0.000
   367N    -0.21487 -0.81248   1.463  3.752  0.000
   368C     0.08568  0.07254   1.044  2.870  0.000
   369C     0.39649  0.36879   1.052  2.552  0.000
   370O    -0.50922 -0.57122   1.740  4.770  0.000
   371C    -0.10112 -0.19244   1.050  3.051  0.000
   372C     0.48080  0.57350   0.988  2.531  0.000
   373O    -0.61878 -0.69036   1.727  4.891  0.000
   374N    -0.40378 -0.86549   1.431  3.973  0.000
   375H     0.30121  0.49676   0.699  0.000  0.000
   376H     0.29445  0.48264   0.706  0.000  0.000
   377H     0.28497  0.46475   0.715  0.000  0.000
   378H     0.09950  0.18125   0.900  0.000  0.000
   379H     0.08412  0.14880   0.916  0.000  0.000
   380H     0.09913  0.16063   0.901  0.000  0.000
   381H     0.28976  0.50410   0.710  0.000  0.000
   382H     0.26909  0.45596   0.731  0.000  0.000
   383N    -0.20907 -0.81038   1.461  3.748  0.000
   384C     0.07786  0.06442   1.046  2.876  0.000
   385C     0.39714  0.36883   1.055  2.548  0.000
   386O    -0.49332 -0.57270   1.734  4.759  0.000
   387C    -0.08469 -0.17616   1.047  3.037  0.000
   388C     0.48290  0.57609   0.987  2.530  0.000
   389O    -0.62012 -0.67908   1.731  4.890  0.000
   390N    -0.40043 -0.86060   1.426  3.974  0.000
   391H     0.28964  0.47098   0.710  0.000  0.000
   392H     0.29190  0.48214   0.708  0.000  0.000
   393H     0.29902  0.49913   0.701  0.000  0.000
   394H     0.10106  0.17536   0.899  0.000  0.000
   395H     0.09107  0.16148   0.909  0.000  0.000
   396H     0.09352  0.15625   0.906  0.000  0.000
   397H     0.26513  0.45529   0.735  0.000  0.000
   398H     0.28114  0.48539   0.719  0.000  0.000
   399N    -0.20840 -0.80944   1.461  3.747  0.000
   400C     0.07878  0.06539   1.046  2.875  0.000
   401C     0.39471  0.36649   1.056  2.549  0.000
   402O    -0.49742 -0.57645   1.734  4.763  0.000
   403C    -0.09610 -0.18724   1.049  3.047  0.000
   404C     0.48720  0.58126   0.984  2.529  0.000
   405O    -0.61150 -0.65754   1.732  4.879  0.000
   406N    -0.41108 -0.86253   1.425  3.986  0.000
   407H     0.29220  0.47348   0.708  0.000  0.000
   408H     0.29128  0.48151   0.709  0.000  0.000
   409H     0.29871  0.49864   0.701  0.000  0.000
   410H     0.10459  0.17885   0.895  0.000  0.000
   411H     0.08356  0.15171   0.916  0.000  0.000
   412H     0.09865  0.15964   0.901  0.000  0.000
   413H     0.28666  0.47413   0.713  0.000  0.000
   414H     0.27091  0.45686   0.729  0.000  0.000
   415N    -0.52768 -1.03843   1.444  4.084  0.000
   416C     0.08831  0.07871   1.039  2.872  0.000
   417C     0.39386  0.36599   1.062  2.544  0.000
   418O    -0.52250 -0.60578   1.738  4.784  0.000
   419C    -0.00550 -0.07528   1.060  2.945  0.000
   420C    -0.10213 -0.25160   1.017  3.085  0.000
   421C    -0.09116 -0.24104   1.013  3.079  0.000
   422H     0.21866  0.41779   0.781  0.000  0.000
   423H     0.02876  0.09853   0.971  0.000  0.000
   424H     0.02847  0.09275   0.972  0.000  0.000
   425H     0.04238  0.09492   0.958  0.000  0.000
   426H     0.03346  0.08849   0.967  0.000  0.000
   427H     0.03295  0.08594   0.967  0.000  0.000
   428H     0.03833  0.09140   0.962  0.000  0.000
   429H     0.03267  0.08627   0.967  0.000  0.000
   430H     0.04085  0.09685   0.959  0.000  0.000
   431N    -0.53696 -1.04961   1.443  4.094  0.000
   432C     0.06573  0.01533   1.013  2.922  0.000
   433C     0.38213  0.35062   1.057  2.561  0.000
   434O    -0.53583 -0.61509   1.740  4.796  0.000
   435H     0.23017  0.43479   0.770  0.000  0.000
   436H     0.07687  0.15608   0.923  0.000  0.000
   437H     0.02545  0.09793   0.975  0.000  0.000
   438N    -0.53324 -1.03949   1.440  4.093  0.000
   439C     0.08982  0.08293   1.043  2.867  0.000
   440C     0.57400  0.63633   0.966  2.460  0.000
   441O    -0.69493 -0.77331   1.738  4.957  0.000
   442C    -0.04855 -0.14631   1.033  3.016  0.000
   443C    -0.01105 -0.02685   1.082  2.929  0.000
   444C    -0.04327 -0.09767   1.060  2.983  0.000
   445C    -0.03286 -0.08759   1.059  2.974  0.000
   446C    -0.08575 -0.13696   1.053  3.032  0.000
   447C    -0.08747 -0.14063   1.059  3.028  0.000
   448C     0.25115  0.26242   1.019  2.730  0.000
   449O    -0.57087 -0.76470   1.706  4.865  0.000
   450O    -0.68863 -0.75597   1.739  4.950  0.000
   451H     0.19650  0.38466   0.804  0.000  0.000
   452H     0.02020  0.09471   0.980  0.000  0.000
   453H     0.02295  0.08427   0.977  0.000  0.000
   454H     0.03208  0.09449   0.968  0.000  0.000
   455H     0.02932  0.08839   0.971  0.000  0.000
   456H     0.02783  0.08606   0.972  0.000  0.000
   457H     0.03636  0.09545   0.964  0.000  0.000
   458H     0.03553  0.09942   0.964  0.000  0.000
   459H     0.37177  0.56122   0.628  0.000  0.000
   460N    -0.53118 -1.03767   1.439  4.092  0.000
   461C     0.09121  0.08425   1.043  2.866  0.000
   462C     0.57591  0.63822   0.965  2.459  0.000
   463O    -0.69026 -0.76885   1.737  4.953  0.000
   464C    -0.04196 -0.14030   1.033  3.009  0.000
   465C    -0.00659 -0.02278   1.083  2.924  0.000
   466C    -0.03794 -0.09268   1.059  2.979  0.000
   467C    -0.03181 -0.08711   1.059  2.973  0.000
   468C    -0.08119 -0.13291   1.053  3.028  0.000
   469C    -0.09280 -0.14669   1.061  3.032  0.000
   470C     0.24856  0.25853   1.020  2.731  0.000
   471O    -0.56894 -0.76700   1.706  4.863  0.000
   472O    -0.68937 -0.75673   1.739  4.951  0.000
   473H     0.19405  0.38245   0.806  0.000  0.000
   474H     0.01770  0.09222   0.982  0.000  0.000
   475H     0.02293  0.08532   0.977  0.000  0.000
   476H     0.03216  0.09479   0.968  0.000  0.000
   477H     0.02630  0.08595   0.974  0.000  0.000
   478H     0.02939  0.08783   0.971  0.000  0.000
   479H     0.03510  0.09466   0.965  0.000  0.000
   480H     0.03686  0.10120   0.963  0.000  0.000
   481H     0.37395  0.56377   0.626  0.000  0.000
   482N    -0.54589 -1.05307   1.441  4.105  0.000
   483C     0.08597  0.07959   1.042  2.872  0.000
   484C     0.57071  0.63440   0.964  2.466  0.000
   485O    -0.70041 -0.75281   1.743  4.957  0.000
   486C    -0.04087 -0.13890   1.032  3.009  0.000
   487C    -0.00303 -0.01889   1.085  2.918  0.000
   488C    -0.03209 -0.08692   1.062  2.971  0.000
   489C    -0.03807 -0.09247   1.060  2.978  0.000
   490C    -0.08113 -0.13451   1.056  3.025  0.000
   491C    -0.09573 -0.14906   1.060  3.036  0.000
   492C     0.24356  0.25282   1.019  2.737  0.000
   493O    -0.54922 -0.75814   1.704  4.846  0.000
   494O    -0.71693 -0.78120   1.741  4.976  0.000
   495H     0.21490  0.42126   0.785  0.000  0.000
   496H     0.00620  0.07962   0.994  0.000  0.000
   497H     0.02713  0.09093   0.973  0.000  0.000
   498H     0.02860  0.09099   0.971  0.000  0.000
   499H     0.03329  0.09800   0.967  0.000  0.000
   500H     0.03398  0.09163   0.966  0.000  0.000
   501H     0.03707  0.10026   0.963  0.000  0.000
   502H     0.04368  0.10306   0.956  0.000  0.000
   503H     0.37805  0.54658   0.622  0.000  0.000
   504N    -0.53592 -1.04187   1.441  4.095  0.000
   505C     0.08602  0.07950   1.043  2.871  0.000
   506C     0.57396  0.63631   0.965  2.461  0.000
   507O    -0.68607 -0.76463   1.736  4.950  0.000
   508C    -0.04282 -0.14107   1.034  3.009  0.000
   509C    -0.00569 -0.02175   1.084  2.921  0.000
   510C    -0.03570 -0.09041   1.060  2.976  0.000
   511C    -0.03462 -0.08946   1.061  2.974  0.000
   512C    -0.07773 -0.12942   1.053  3.024  0.000
   513C    -0.10182 -0.15518   1.062  3.040  0.000
   514C     0.24598  0.25602   1.019  2.735  0.000
   515O    -0.55932 -0.75669   1.705  4.854  0.000
   516O    -0.69057 -0.75761   1.739  4.952  0.000
   517H     0.19823  0.38663   0.802  0.000  0.000
   518H     0.01867  0.09227   0.981  0.000  0.000
   519H     0.02755  0.08994   0.972  0.000  0.000
   520H     0.03587  0.09848   0.964  0.000  0.000
   521H     0.03051  0.09017   0.969  0.000  0.000
   522H     0.03658  0.09445   0.963  0.000  0.000
   523H     0.03971  0.09926   0.960  0.000  0.000
   524H     0.04708  0.10647   0.953  0.000  0.000
   525H     0.38140  0.54882   0.619  0.000  0.000
   526O    -0.73302 -1.21820   1.660  5.073  0.000
   527H     0.37476  0.62715   0.625  0.000  0.000
   528H     0.37498  0.62129   0.625  0.000  0.000
   529O    -0.75732 -1.22721   1.660  5.097  0.000
   530H     0.37733  0.62839   0.623  0.000  0.000
   531H     0.38033  0.60878   0.620  0.000  0.000
   532O    -0.73565 -1.22077   1.661  5.075  0.000
   533H     0.37623  0.62860   0.624  0.000  0.000
   534H     0.37749  0.62379   0.623  0.000  0.000
   535O    -0.73444 -1.21812   1.660  5.074  0.000
   536H     0.37678  0.62516   0.623  0.000  0.000
   537H     0.37282  0.61846   0.627  0.000  0.000
   538O    -0.75515 -1.22511   1.659  5.096  0.000
   539H     0.37594  0.62702   0.624  0.000  0.000
   540H     0.37735  0.60581   0.623  0.000  0.000
   541O    -0.75536 -1.22529   1.660  5.096  0.000
   542H     0.37686  0.62791   0.623  0.000  0.000
   543H     0.37796  0.60638   0.622  0.000  0.000
   544O    -0.74449 -1.20938   1.658  5.086  0.000
   545H     0.38773  0.61356   0.612  0.000  0.000
   546H     0.37108  0.60879   0.629  0.000  0.000
   547O    -0.72734 -1.19958   1.657  5.070  0.000
   548H     0.37837  0.60703   0.622  0.000  0.000
   549H     0.37337  0.61172   0.627  0.000  0.000
   550O    -0.71520 -1.19255   1.655  5.060  0.000
   551H     0.36915  0.60237   0.631  0.000  0.000
   552H     0.36994  0.60906   0.630  0.000  0.000
   553O    -0.72372 -1.19949   1.658  5.066  0.000
   554H     0.37502  0.60477   0.625  0.000  0.000
   555H     0.37634  0.61497   0.624  0.000  0.000
   556O    -0.71303 -1.18940   1.654  5.059  0.000
   557H     0.36530  0.59832   0.635  0.000  0.000
   558H     0.36817  0.60482   0.632  0.000  0.000
   559O    -0.74149 -1.19490   1.651  5.091  0.000
   560H     0.35779  0.58724   0.642  0.000  0.000
   561H     0.35968  0.59469   0.640  0.000  0.000
   562O    -0.72366 -1.19734   1.656  5.067  0.000
   563H     0.37503  0.60434   0.625  0.000  0.000
   564H     0.37435  0.61268   0.626  0.000  0.000
   565O    -0.72145 -1.18721   1.649  5.073  0.000
   566H     0.35377  0.58913   0.646  0.000  0.000
   567H     0.35867  0.60228   0.641  0.000  0.000
   568O    -0.74014 -1.19904   1.654  5.087  0.000
   569H     0.36489  0.59917   0.635  0.000  0.000
   570H     0.37040  0.59819   0.630  0.000  0.000
   571O    -0.75673 -1.21314   1.659  5.098  0.000
   572H     0.38857  0.61347   0.611  0.000  0.000
   573H     0.37733  0.60322   0.623  0.000  0.000
   574O    -0.72134 -1.18711   1.649  5.072  0.000
   575H     0.35378  0.58914   0.646  0.000  0.000
   576H     0.35923  0.60283   0.641  0.000  0.000
   577O    -0.73842 -1.19371   1.652  5.087  0.000
   578H     0.36882  0.59515   0.631  0.000  0.000
   579H     0.37137  0.59896   0.629  0.000  0.000
   580O    -0.72238 -1.18814   1.649  5.073  0.000
   581H     0.35449  0.58986   0.646  0.000  0.000
   582H     0.35979  0.60340   0.640  0.000  0.000
   583O    -0.73493 -1.19519   1.651  5.084  0.000
   584H     0.35841  0.59180   0.642  0.000  0.000
   585H     0.36244  0.60354   0.638  0.000  0.000
   586O    -0.73203 -1.19166   1.650  5.083  0.000
   587H     0.35626  0.59152   0.644  0.000  0.000
   588H     0.36184  0.60437   0.638  0.000  0.000
   589O    -0.72295 -1.18787   1.649  5.074  0.000
   590H     0.35324  0.58848   0.647  0.000  0.000
   591H     0.35996  0.60354   0.640  0.000  0.000
   592O    -0.73725 -1.20173   1.654  5.083  0.000
   593H     0.36270  0.59772   0.637  0.000  0.000
   594H     0.36361  0.60636   0.636  0.000  0.000
   595O    -0.73726 -1.19814   1.653  5.084  0.000
   596H     0.36796  0.59503   0.632  0.000  0.000
   597H     0.36624  0.60878   0.634  0.000  0.000
   598N    -0.20748 -0.80656   1.461  3.747  0.000
   599C     0.07781  0.07256   1.046  2.876  0.000
   600C     0.47234  0.57497   0.984  2.543  0.000
   601O    -0.60647 -0.65628   1.731  4.875  0.000
   602C    -0.10387 -0.19402   1.051  3.053  0.000
   603C     0.48158  0.57449   0.991  2.528  0.000
   604O    -0.62010 -0.67587   1.735  4.885  0.000
   605N    -0.40328 -0.85586   1.426  3.977  0.000
   606H     0.29496  0.48913   0.705  0.000  0.000
   607H     0.28875  0.47668   0.711  0.000  0.000
   608H     0.28246  0.46346   0.718  0.000  0.000
   609H     0.09375  0.18228   0.906  0.000  0.000
   610H     0.08064  0.14506   0.919  0.000  0.000
   611H     0.09060  0.15434   0.909  0.000  0.000
   612H     0.28635  0.47381   0.714  0.000  0.000
   613H     0.27391  0.45956   0.726  0.000  0.000
   614N    -0.30998 -0.67923   1.426  3.884  0.000
   615C     0.08951  0.08745   1.040  2.871  0.000
   616C     0.38486  0.35770   1.063  2.552  0.000
   617O    -0.51058 -0.57467   1.745  4.766  0.000
   618C    -0.00171 -0.07034   1.058  2.944  0.000
   619C    -0.10199 -0.25150   1.016  3.086  0.000
   620C    -0.08785 -0.23604   1.013  3.075  0.000
   621H     0.26540  0.47031   0.735  0.000  0.000
   622H     0.06271  0.13940   0.937  0.000  0.000
   623H     0.03801  0.10200   0.962  0.000  0.000
   624H     0.04803  0.10034   0.952  0.000  0.000
   625H     0.04009  0.09469   0.960  0.000  0.000
   626H     0.03884  0.09202   0.961  0.000  0.000
   627H     0.04029  0.09278   0.960  0.000  0.000
   628H     0.03602  0.09043   0.964  0.000  0.000
   629H     0.04256  0.10284   0.957  0.000  0.000
   630N    -0.19632 -0.80126   1.457  3.739  0.000
   631C     0.08153  0.07628   1.044  2.874  0.000
   632C     0.47830  0.57994   0.985  2.536  0.000
   633O    -0.59156 -0.67161   1.725  4.866  0.000
   634C    -0.08995 -0.18021   1.047  3.043  0.000
   635C     0.47826  0.57071   0.991  2.531  0.000
   636O    -0.63950 -0.71159   1.734  4.906  0.000
   637N    -0.40652 -0.86838   1.433  3.974  0.000
   638H     0.27972  0.47862   0.720  0.000  0.000
   639H     0.27478  0.46938   0.725  0.000  0.000
   640H     0.27942  0.48216   0.721  0.000  0.000
   641H     0.07663  0.16526   0.923  0.000  0.000
   642H     0.07690  0.14593   0.923  0.000  0.000
   643H     0.07424  0.13862   0.926  0.000  0.000
   644H     0.28301  0.50286   0.717  0.000  0.000
   645H     0.25965  0.45990   0.740  0.000  0.000
   646N    -0.30970 -0.67903   1.427  3.883  0.000
   647C     0.09368  0.09171   1.039  2.867  0.000
   648C     0.38953  0.36271   1.061  2.549  0.000
   649O    -0.52645 -0.58327   1.748  4.779  0.000
   650C    -0.00196 -0.07042   1.057  2.945  0.000
   651C    -0.09320 -0.24319   1.014  3.079  0.000
   652C    -0.07798 -0.22719   1.013  3.064  0.000
   653H     0.25976  0.46430   0.740  0.000  0.000
   654H     0.06497  0.14738   0.935  0.000  0.000
   655H     0.03282  0.09639   0.967  0.000  0.000
   656H     0.04226  0.09477   0.958  0.000  0.000
   657H     0.03506  0.08978   0.965  0.000  0.000
   658H     0.03949  0.09430   0.961  0.000  0.000
   659H     0.03091  0.08401   0.969  0.000  0.000
   660H     0.03622  0.09477   0.964  0.000  0.000
   661H     0.03691  0.09864   0.963  0.000  0.000
   662N    -0.19647 -0.80140   1.457  3.739  0.000
   663C     0.08120  0.07594   1.044  2.875  0.000
   664C     0.47792  0.57964   0.985  2.537  0.000
   665O    -0.59369 -0.67382   1.725  4.869  0.000
   666C    -0.08957 -0.17994   1.048  3.042  0.000
   667C     0.47936  0.57171   0.991  2.530  0.000
   668O    -0.64283 -0.71494   1.734  4.909  0.000
   669N    -0.40554 -0.86878   1.433  3.973  0.000
   670H     0.27570  0.47458   0.724  0.000  0.000
   671H     0.27443  0.46903   0.726  0.000  0.000
   672H     0.27731  0.48005   0.723  0.000  0.000
   673H     0.07741  0.16604   0.923  0.000  0.000
   674H     0.07788  0.14694   0.922  0.000  0.000
   675H     0.07592  0.14100   0.924  0.000  0.000
   676H     0.28440  0.50432   0.716  0.000  0.000
   677H     0.26234  0.46304   0.738  0.000  0.000
   678N    -0.31108 -0.68076   1.427  3.884  0.000
   679C     0.08837  0.09350   1.041  2.870  0.000
   680C     0.46537  0.57050   0.996  2.539  0.000
   681O    -0.61908 -0.67778   1.733  4.886  0.000
   682C    -0.00211 -0.07042   1.056  2.946  0.000
   683C    -0.08818 -0.23824   1.013  3.075  0.000
   684C    -0.07867 -0.22794   1.014  3.065  0.000
   685H     0.25792  0.46309   0.742  0.000  0.000
   686H     0.06219  0.14977   0.938  0.000  0.000
   687H     0.02703  0.09117   0.973  0.000  0.000
   688H     0.03814  0.09090   0.962  0.000  0.000
   689H     0.02763  0.08455   0.972  0.000  0.000
   690H     0.03585  0.09144   0.964  0.000  0.000
   691H     0.03039  0.08350   0.970  0.000  0.000
   692H     0.03563  0.09420   0.964  0.000  0.000
   693H     0.03753  0.09928   0.962  0.000  0.000
   694N    -0.31868 -0.68685   1.427  3.892  0.000
   695C     0.06276  0.02711   1.015  2.922  0.000
   696C     0.47141  0.57192   0.996  2.533  0.000
   697O    -0.61087 -0.66972   1.733  4.878  0.000
   698H     0.26374  0.46779   0.736  0.000  0.000
   699H     0.08642  0.17090   0.914  0.000  0.000
   700H     0.06026  0.13579   0.940  0.000  0.000
   701N    -0.32659 -0.67854   1.428  3.898  0.000
   702C     0.08550  0.08933   1.043  2.871  0.000
   703C     0.47071  0.57565   0.992  2.537  0.000
   704O    -0.59027 -0.65688   1.729  4.861  0.000
   705C     0.19788  0.11784   0.996  2.806  0.000
   706O    -0.59805 -0.81786   1.704  4.894  0.000
   707H     0.25245  0.45422   0.748  0.000  0.000
   708H     0.05829  0.14113   0.942  0.000  0.000
   709H     0.04392  0.11589   0.956  0.000  0.000
   710H     0.04656  0.11725   0.953  0.000  0.000
   711H     0.36106  0.53367   0.639  0.000  0.000
   712N    -0.31508 -0.67289   1.424  3.891  0.000
   713C     0.10689  0.11171   1.037  2.857  0.000
   714C     0.46761  0.57210   0.990  2.543  0.000
   715O    -0.60707 -0.66407   1.731  4.876  0.000
   716C    -0.09194 -0.18175   1.049  3.043  0.000
   717C     0.48838  0.58289   0.989  2.523  0.000
   718O    -0.59529 -0.66955   1.722  4.874  0.000
   719N    -0.39510 -0.85238   1.424  3.971  0.000
   720H     0.24864  0.44725   0.751  0.000  0.000
   721H     0.07024  0.15515   0.930  0.000  0.000
   722H     0.05201  0.12044   0.948  0.000  0.000
   723H     0.06618  0.13102   0.934  0.000  0.000
   724H     0.26767  0.46821   0.732  0.000  0.000
   725H     0.25238  0.44148   0.748  0.000  0.000
   726N    -0.32216 -0.68398   1.431  3.891  0.000
   727C     0.07989  0.08710   1.041  2.879  0.000
   728C     0.47443  0.57985   0.990  2.536  0.000
   729O    -0.60201 -0.67208   1.728  4.874  0.000
   730C     0.22747  0.18458   1.017  2.755  0.000
   731O    -0.59628 -0.82576   1.712  4.885  0.000
   732C    -0.10399 -0.25151   1.020  3.084  0.000
   733H     0.26128  0.47004   0.739  0.000  0.000
   734H     0.06129  0.15167   0.939  0.000  0.000
   735H     0.01815  0.08946   0.982  0.000  0.000
   736H     0.37076  0.56302   0.629  0.000  0.000
   737H     0.03418  0.09189   0.966  0.000  0.000
   738H     0.03143  0.08991   0.969  0.000  0.000
   739H     0.04700  0.11256   0.953  0.000  0.000
   740N    -0.31737 -0.67618   1.429  3.888  0.000
   741C     0.08499  0.08452   1.048  2.867  0.000
   742C     0.57648  0.63950   0.965  2.458  0.000
   743O    -0.67064 -0.75637   1.729  4.942  0.000
   744C    -0.05344 -0.14991   1.038  3.015  0.000
   745C    -0.01227 -0.02687   1.083  2.929  0.000
   746C    -0.04088 -0.09416   1.063  2.978  0.000
   747C    -0.03228 -0.08666   1.060  2.972  0.000
   748C    -0.08213 -0.13461   1.056  3.026  0.000
   749C    -0.08225 -0.13579   1.062  3.020  0.000
   750C     0.25231  0.26142   1.021  2.726  0.000
   751O    -0.56410 -0.76540   1.709  4.855  0.000
   752O    -0.69892 -0.75896   1.744  4.955  0.000
   753H     0.25190  0.45647   0.748  0.000  0.000
   754H     0.04764  0.12873   0.952  0.000  0.000
   755H     0.03831  0.09907   0.962  0.000  0.000
   756H     0.04188  0.10103   0.958  0.000  0.000
   757H     0.03174  0.09532   0.968  0.000  0.000
   758H     0.02896  0.08712   0.971  0.000  0.000
   759H     0.03816  0.09830   0.962  0.000  0.000
   760H     0.03924  0.10315   0.961  0.000  0.000
   761H     0.37427  0.56504   0.626  0.000  0.000
   762N    -0.20239 -0.80443   1.459  3.743  0.000
   763C     0.07411  0.06883   1.046  2.880  0.000
   764C     0.46979  0.57161   0.985  2.546  0.000
   765O    -0.58680 -0.66681   1.724  4.863  0.000
   766C    -0.09174 -0.18211   1.048  3.044  0.000
   767C     0.48015  0.57357   0.987  2.533  0.000
   768O    -0.63241 -0.67730   1.740  4.893  0.000
   769N    -0.40319 -0.85787   1.425  3.978  0.000
   770H     0.28269  0.46416   0.717  0.000  0.000
   771H     0.28632  0.47723   0.714  0.000  0.000
   772H     0.29711  0.49923   0.703  0.000  0.000
   773H     0.08256  0.16075   0.917  0.000  0.000
   774H     0.08356  0.15257   0.916  0.000  0.000
   775H     0.07869  0.14301   0.921  0.000  0.000
   776H     0.27510  0.46287   0.725  0.000  0.000
   777H     0.26586  0.46523   0.734  0.000  0.000
   778N    -0.31184 -0.67713   1.427  3.885  0.000
   779C     0.08469  0.08999   1.042  2.873  0.000
   780C     0.46106  0.56661   0.994  2.545  0.000
   781O    -0.62742 -0.66977   1.740  4.888  0.000
   782C    -0.00665 -0.07445   1.056  2.951  0.000
   783C    -0.09285 -0.24200   1.013  3.080  0.000
   784C    -0.08863 -0.23689   1.014  3.075  0.000
   785H     0.26408  0.45822   0.736  0.000  0.000
   786H     0.06450  0.15206   0.935  0.000  0.000
   787H     0.03369  0.09719   0.966  0.000  0.000
   788H     0.04309  0.09545   0.957  0.000  0.000
   789H     0.03407  0.09009   0.966  0.000  0.000
   790H     0.03778  0.09280   0.962  0.000  0.000
   791H     0.03792  0.09049   0.962  0.000  0.000
   792H     0.03863  0.09690   0.961  0.000  0.000
   793H     0.03204  0.09142   0.968  0.000  0.000
   794N    -0.32359 -0.69078   1.427  3.897  0.000
   795C     0.06057  0.02513   1.015  2.925  0.000
   796C     0.47460  0.57532   0.994  2.532  0.000
   797O    -0.61835 -0.66268   1.737  4.881  0.000
   798H     0.26222  0.46614   0.738  0.000  0.000
   799H     0.08548  0.16516   0.915  0.000  0.000
   800H     0.06447  0.13693   0.936  0.000  0.000
   801N    -0.32513 -0.67631   1.427  3.898  0.000
   802C     0.08797  0.08492   1.042  2.870  0.000
   803C     0.38402  0.35822   1.061  2.555  0.000
   804O    -0.49744 -0.55875   1.744  4.754  0.000
   805C     0.19586  0.11682   0.994  2.810  0.000
   806O    -0.60684 -0.81607   1.704  4.903  0.000
   807H     0.24972  0.45125   0.750  0.000  0.000
   808H     0.07005  0.14680   0.930  0.000  0.000
   809H     0.03856  0.10976   0.961  0.000  0.000
   810H     0.04531  0.11137   0.955  0.000  0.000
   811H     0.37470  0.54009   0.625  0.000  0.000
   812N    -0.20332 -0.80263   1.460  3.744  0.000
   813C     0.07941  0.07391   1.045  2.876  0.000
   814C     0.47289  0.57485   0.983  2.544  0.000
   815O    -0.58433 -0.64761   1.728  4.856  0.000
   816C    -0.10580 -0.19621   1.052  3.054  0.000
   817C     0.47923  0.57262   0.989  2.532  0.000
   818O    -0.62653 -0.67136   1.739  4.887  0.000
   819N    -0.40797 -0.85958   1.425  3.983  0.000
   820H     0.29467  0.48880   0.705  0.000  0.000
   821H     0.29401  0.48290   0.706  0.000  0.000
   822H     0.28358  0.46458   0.716  0.000  0.000
   823H     0.08422  0.16483   0.916  0.000  0.000
   824H     0.08504  0.14992   0.915  0.000  0.000
   825H     0.09008  0.15357   0.910  0.000  0.000
   826H     0.28318  0.47049   0.717  0.000  0.000
   827H     0.27244  0.45818   0.728  0.000  0.000
   828N    -0.31216 -0.68008   1.424  3.888  0.000
   829C     0.08676  0.09192   1.042  2.871  0.000
   830C     0.46417  0.56906   0.995  2.541  0.000
   831O    -0.61097 -0.65560   1.739  4.872  0.000
   832C    -0.00444 -0.07300   1.056  2.948  0.000
   833C    -0.09012 -0.24062   1.014  3.076  0.000
   834C    -0.08088 -0.23069   1.015  3.066  0.000
   835H     0.25896  0.45467   0.741  0.000  0.000
   836H     0.06523  0.14722   0.935  0.000  0.000
   837H     0.03275  0.09673   0.967  0.000  0.000
   838H     0.03910  0.09254   0.961  0.000  0.000
   839H     0.03233  0.08927   0.968  0.000  0.000
   840H     0.03663  0.09073   0.963  0.000  0.000
   841H     0.02729  0.08149   0.973  0.000  0.000
   842H     0.03972  0.09775   0.960  0.000  0.000
   843H     0.03710  0.09887   0.963  0.000  0.000
   844N    -0.32224 -0.68904   1.424  3.898  0.000
   845C     0.06983  0.02602   1.015  2.915  0.000
   846C     0.40340  0.37395   1.054  2.542  0.000
   847O    -0.50968 -0.58895   1.738  4.771  0.000
   848H     0.26803  0.45959   0.732  0.000  0.000
   849H     0.09228  0.16338   0.908  0.000  0.000
   850H     0.07277  0.14802   0.927  0.000  0.000
   851N    -0.20734 -0.81050   1.459  3.748  0.000
   852C     0.08005  0.07475   1.045  2.875  0.000
   853C     0.47460  0.57647   0.984  2.541  0.000
   854O    -0.59310 -0.66523   1.727  4.866  0.000
   855C    -0.09098 -0.18146   1.048  3.043  0.000
   856C     0.47908  0.57141   0.990  2.530  0.000
   857O    -0.63603 -0.70816   1.733  4.903  0.000
   858N    -0.40630 -0.86946   1.432  3.974  0.000
   859H     0.28569  0.48436   0.714  0.000  0.000
   860H     0.28138  0.47123   0.719  0.000  0.000
   861H     0.27575  0.47279   0.724  0.000  0.000
   862H     0.08495  0.17360   0.915  0.000  0.000
   863H     0.07475  0.14067   0.925  0.000  0.000
   864H     0.07792  0.14296   0.922  0.000  0.000
   865H     0.28371  0.50364   0.716  0.000  0.000
   866H     0.25875  0.45938   0.741  0.000  0.000
   867N    -0.31131 -0.68097   1.426  3.885  0.000
   868C     0.08938  0.09449   1.041  2.870  0.000
   869C     0.46721  0.57215   0.997  2.536  0.000
   870O    -0.60980 -0.67037   1.733  4.877  0.000
   871C    -0.00191 -0.07076   1.056  2.946  0.000
   872C    -0.09220 -0.24206   1.013  3.079  0.000
   873C    -0.08052 -0.22987   1.014  3.067  0.000
   874H     0.25869  0.46387   0.741  0.000  0.000
   875H     0.06209  0.14960   0.938  0.000  0.000
   876H     0.02886  0.09333   0.971  0.000  0.000
   877H     0.03818  0.09126   0.962  0.000  0.000
   878H     0.03166  0.08786   0.968  0.000  0.000
   879H     0.03441  0.08942   0.966  0.000  0.000
   880H     0.02893  0.08271   0.971  0.000  0.000
   881H     0.03584  0.09417   0.964  0.000  0.000
   882H     0.03895  0.10078   0.961  0.000  0.000
   883N    -0.32001 -0.68828   1.426  3.894  0.000
   884C     0.06390  0.02721   1.015  2.921  0.000
   885C     0.47396  0.57360   0.995  2.532  0.000
   886O    -0.58959 -0.67180   1.727  4.863  0.000
   887H     0.26710  0.46968   0.733  0.000  0.000
   888H     0.07452  0.14469   0.925  0.000  0.000
   889H     0.07211  0.14543   0.928  0.000  0.000
   890N    -0.31838 -0.67053   1.429  3.890  0.000
   891C     0.08749  0.09132   1.043  2.869  0.000
   892C     0.46773  0.57263   0.992  2.540  0.000
   893O    -0.59799 -0.66464   1.730  4.868  0.000
   894C     0.20038  0.12032   0.996  2.804  0.000
   895O    -0.59646 -0.81635   1.703  4.893  0.000
   896H     0.25564  0.45738   0.744  0.000  0.000
   897H     0.05903  0.14275   0.941  0.000  0.000
   898H     0.04072  0.11270   0.959  0.000  0.000
   899H     0.04530  0.11622   0.955  0.000  0.000
   900H     0.36116  0.53382   0.639  0.000  0.000
   901N    -0.32241 -0.68205   1.428  3.894  0.000
   902C     0.11106  0.11594   1.035  2.854  0.000
   903C     0.47176  0.57613   0.990  2.538  0.000
   904O    -0.60789 -0.66977   1.729  4.879  0.000
   905C    -0.08801 -0.17762   1.047  3.041  0.000
   906C     0.48832  0.58285   0.990  2.521  0.000
   907O    -0.61265 -0.68636   1.723  4.889  0.000
   908N    -0.38606 -0.84423   1.423  3.963  0.000
   909H     0.26132  0.47614   0.739  0.000  0.000
   910H     0.06312  0.14804   0.937  0.000  0.000
   911H     0.06149  0.13481   0.939  0.000  0.000
   912H     0.05866  0.12356   0.941  0.000  0.000
   913H     0.25855  0.44887   0.741  0.000  0.000
   914H     0.25947  0.45959   0.741  0.000  0.000
   915N    -0.32159 -0.68344   1.431  3.890  0.000
   916C     0.08043  0.08764   1.041  2.878  0.000
   917C     0.47354  0.57896   0.989  2.537  0.000
   918O    -0.60769 -0.67776   1.728  4.880  0.000
   919C     0.22893  0.18604   1.017  2.754  0.000
   920O    -0.59276 -0.82226   1.711  4.882  0.000
   921C    -0.10425 -0.25177   1.020  3.085  0.000
   922H     0.25949  0.46826   0.741  0.000  0.000
   923H     0.06380  0.15424   0.936  0.000  0.000
   924H     0.01624  0.08755   0.984  0.000  0.000
   925H     0.36859  0.56086   0.631  0.000  0.000
   926H     0.03310  0.09081   0.967  0.000  0.000
   927H     0.02937  0.08785   0.971  0.000  0.000
   928H     0.04613  0.11169   0.954  0.000  0.000
   929N    -0.31287 -0.67198   1.430  3.883  0.000
   930C     0.08723  0.08673   1.047  2.865  0.000
   931C     0.57821  0.64124   0.965  2.457  0.000
   932O    -0.66674 -0.75250   1.728  4.938  0.000
   933C    -0.04480 -0.14167   1.037  3.007  0.000
   934C    -0.00926 -0.02409   1.084  2.926  0.000
   935C    -0.03607 -0.08981   1.063  2.973  0.000
   936C    -0.03570 -0.09005   1.060  2.976  0.000
   937C    -0.07706 -0.13001   1.057  3.021  0.000
   938C    -0.08785 -0.14145   1.062  3.026  0.000
   939C     0.25380  0.26262   1.021  2.726  0.000
   940O    -0.55639 -0.76805   1.708  4.848  0.000
   941O    -0.70222 -0.76225   1.744  4.958  0.000
   942H     0.25476  0.45976   0.745  0.000  0.000
   943H     0.04204  0.12314   0.958  0.000  0.000
   944H     0.03888  0.10227   0.961  0.000  0.000
   945H     0.03899  0.09833   0.961  0.000  0.000
   946H     0.02937  0.09378   0.971  0.000  0.000
   947H     0.02823  0.08617   0.972  0.000  0.000
   948H     0.03813  0.10037   0.962  0.000  0.000
   949H     0.03903  0.10115   0.961  0.000  0.000
   950H     0.37787  0.56970   0.622  0.000  0.000
   951N    -0.19434 -0.79594   1.457  3.737  0.000
   952C     0.08055  0.07526   1.045  2.874  0.000
   953C     0.47852  0.58015   0.985  2.537  0.000
   954O    -0.59631 -0.67630   1.725  4.871  0.000
   955C    -0.09750 -0.18770   1.049  3.048  0.000
   956C     0.47871  0.57098   0.991  2.530  0.000
   957O    -0.62924 -0.70131   1.733  4.896  0.000
   958N    -0.40412 -0.86544   1.431  3.973  0.000
   959H     0.28760  0.48213   0.712  0.000  0.000
   960H     0.28175  0.47530   0.718  0.000  0.000
   961H     0.27343  0.46034   0.727  0.000  0.000
   962H     0.08995  0.17855   0.910  0.000  0.000
   963H     0.07540  0.14301   0.925  0.000  0.000
   964H     0.08544  0.14988   0.915  0.000  0.000
   965H     0.29378  0.51328   0.706  0.000  0.000
   966H     0.25835  0.44555   0.742  0.000  0.000
   967N    -0.30328 -0.67355   1.427  3.876  0.000
   968C     0.09157  0.08943   1.040  2.868  0.000
   969C     0.39213  0.36448   1.065  2.543  0.000
   970O    -0.50996 -0.58625   1.742  4.768  0.000
   971C    -0.00061 -0.06996   1.058  2.942  0.000
   972C    -0.09621 -0.24638   1.015  3.081  0.000
   973C    -0.08053 -0.22991   1.014  3.066  0.000
   974H     0.26552  0.47051   0.734  0.000  0.000
   975H     0.06518  0.14753   0.935  0.000  0.000
   976H     0.03428  0.09861   0.966  0.000  0.000
   977H     0.04330  0.09633   0.957  0.000  0.000
   978H     0.03783  0.09259   0.962  0.000  0.000
   979H     0.03699  0.09166   0.963  0.000  0.000
   980H     0.03244  0.08621   0.968  0.000  0.000
   981H     0.03469  0.09302   0.965  0.000  0.000
   982H     0.04042  0.10225   0.960  0.000  0.000
   983N    -0.19792 -0.80285   1.458  3.740  0.000
   984C     0.08226  0.07700   1.044  2.874  0.000
   985C     0.47713  0.57884   0.985  2.538  0.000
   986O    -0.59728 -0.67742   1.725  4.872  0.000
   987C    -0.08924 -0.17961   1.047  3.042  0.000
   988C     0.47969  0.57204   0.990  2.530  0.000
   989O    -0.63704 -0.70917   1.734  4.903  0.000
   990N    -0.40661 -0.86977   1.432  3.974  0.000
   991H     0.27981  0.47870   0.720  0.000  0.000
   992H     0.27350  0.46809   0.726  0.000  0.000
   993H     0.27932  0.48205   0.721  0.000  0.000
   994H     0.08037  0.16904   0.920  0.000  0.000
   995H     0.07552  0.14458   0.924  0.000  0.000
   996H     0.07241  0.13749   0.928  0.000  0.000
   997H     0.28322  0.50312   0.717  0.000  0.000
   998H     0.25720  0.45775   0.743  0.000  0.000
   999N    -0.30879 -0.67846   1.427  3.882  0.000
  1000C     0.08608  0.09119   1.042  2.872  0.000
  1001C     0.46462  0.56990   0.996  2.540  0.000
  1002O    -0.61837 -0.66810   1.737  4.881  0.000
  1003C    -0.00184 -0.07076   1.056  2.946  0.000
  1004C    -0.09368 -0.24387   1.015  3.079  0.000
  1005C    -0.07842 -0.22849   1.014  3.064  0.000
  1006H     0.25830  0.46344   0.742  0.000  0.000
  1007H     0.06020  0.14773   0.940  0.000  0.000
  1008H     0.02837  0.09282   0.972  0.000  0.000
  1009H     0.04087  0.09411   0.959  0.000  0.000
  1010H     0.03357  0.08963   0.966  0.000  0.000
  1011H     0.03592  0.09107   0.964  0.000  0.000
  1012H     0.02904  0.08326   0.971  0.000  0.000
  1013H     0.03381  0.09239   0.966  0.000  0.000
  1014H     0.03763  0.09948   0.962  0.000  0.000
  1015N    -0.32560 -0.69323   1.426  3.899  0.000
  1016C     0.06340  0.02754   1.014  2.923  0.000
  1017C     0.47445  0.57510   0.993  2.532  0.000
  1018O    -0.61555 -0.66000   1.737  4.879  0.000
  1019H     0.26733  0.46990   0.733  0.000  0.000
  1020H     0.07600  0.14521   0.924  0.000  0.000
  1021H     0.07252  0.14477   0.927  0.000  0.000
  1022N    -0.32296 -0.67422   1.428  3.895  0.000
  1023C     0.08785  0.08477   1.042  2.870  0.000
  1024C     0.38430  0.35858   1.062  2.554  0.000
  1025O    -0.50505 -0.56461   1.744  4.761  0.000
  1026C     0.19823  0.11862   0.994  2.808  0.000
  1027O    -0.60178 -0.81488   1.703  4.899  0.000
  1028H     0.25389  0.45539   0.746  0.000  0.000
  1029H     0.07089  0.14765   0.929  0.000  0.000
  1030H     0.04060  0.11200   0.959  0.000  0.000
  1031H     0.04366  0.11064   0.956  0.000  0.000
  1032H     0.35722  0.52922   0.643  0.000  0.000
  1033N    -0.52980 -1.04183   1.439  4.091  0.000
  1034C     0.08786  0.08658   1.039  2.874  0.000
  1035C     0.46617  0.57097   0.998  2.535  0.000
  1036O    -0.61517 -0.66961   1.736  4.879  0.000
  1037C    -0.00918 -0.07881   1.057  2.953  0.000
  1038C    -0.08935 -0.23988   1.013  3.076  0.000
  1039C    -0.08781 -0.23886   1.016  3.072  0.000
  1040H     0.21296  0.40082   0.787  0.000  0.000
  1041H     0.02816  0.10350   0.972  0.000  0.000
  1042H     0.02334  0.08712   0.977  0.000  0.000
  1043H     0.03304  0.08648   0.967  0.000  0.000
  1044H     0.02424  0.08118   0.976  0.000  0.000
  1045H     0.02965  0.08375   0.970  0.000  0.000
  1046H     0.02703  0.08110   0.973  0.000  0.000
  1047H     0.03559  0.09283   0.964  0.000  0.000
  1048H     0.03914  0.09751   0.961  0.000  0.000
  1049N    -0.33210 -0.69977   1.424  3.908  0.000
  1050C     0.06279  0.02630   1.016  2.921  0.000
  1051C     0.47582  0.57546   0.995  2.529  0.000
  1052O    -0.59692 -0.67888   1.728  4.869  0.000
  1053H     0.25278  0.44607   0.747  0.000  0.000
  1054H     0.08646  0.17077   0.914  0.000  0.000
  1055H     0.05813  0.13445   0.942  0.000  0.000
  1056N    -0.31952 -0.67132   1.428  3.892  0.000
  1057C     0.08238  0.08635   1.044  2.874  0.000
  1058C     0.46557  0.57146   0.992  2.542  0.000
  1059O    -0.60899 -0.65389   1.736  4.873  0.000
  1060C     0.19755  0.11898   0.993  2.810  0.000
  1061O    -0.60676 -0.81677   1.705  4.902  0.000
  1062H     0.25409  0.45571   0.746  0.000  0.000
  1063H     0.06264  0.14400   0.937  0.000  0.000
  1064H     0.03974  0.10908   0.960  0.000  0.000
  1065H     0.04007  0.10625   0.960  0.000  0.000
  1066H     0.38289  0.54761   0.617  0.000  0.000
  1067N    -0.32116 -0.67835   1.424  3.897  0.000
  1068C     0.10656  0.11147   1.036  2.857  0.000
  1069C     0.46649  0.57148   0.990  2.543  0.000
  1070O    -0.62088 -0.66302   1.737  4.884  0.000
  1071C    -0.09313 -0.18295   1.049  3.044  0.000
  1072C     0.48898  0.58349   0.989  2.522  0.000
  1073O    -0.59569 -0.66996   1.722  4.874  0.000
  1074N    -0.38755 -0.84636   1.422  3.966  0.000
  1075H     0.25010  0.44869   0.750  0.000  0.000
  1076H     0.06710  0.15197   0.933  0.000  0.000
  1077H     0.05470  0.12320   0.945  0.000  0.000
  1078H     0.06757  0.13241   0.932  0.000  0.000
  1079H     0.26764  0.46900   0.732  0.000  0.000
  1080H     0.24555  0.43664   0.754  0.000  0.000
  1081N    -0.32518 -0.68625   1.430  3.895  0.000
  1082C     0.08008  0.08770   1.040  2.880  0.000
  1083C     0.47245  0.57808   0.988  2.539  0.000
  1084O    -0.59806 -0.66774   1.728  4.871  0.000
[...]
                          1707 N    0.944
  1709   6 C    3.902 --  1710 O    1.537  1721 N    1.324  1708 C    0.950
  1710   8 O    1.914 --  1709 C    1.537  1721 N    0.168
  1711   6 C    3.917 --  1713 C    1.000  1716 H    0.969  1708 C    0.958
                          1712 O    0.942
  1712   8 O    1.895 --  1711 C    0.942  1717 H    0.856
  1713   6 C    3.993 --  1711 C    1.000  1720 H    0.986  1719 H    0.983
                          1718 H    0.983
  1714   1 H    0.959 --  1707 N    0.876
  1715   1 H    1.013 --  1708 C    0.964
  1716   1 H    1.008 --  1711 C    0.969
  1717   1 H    0.872 --  1712 O    0.856
  1718   1 H    1.001 --  1713 C    0.983
  1719   1 H    1.001 --  1713 C    0.983
  1720   1 H    1.006 --  1713 C    0.986
  1721   7 N    3.379 --  1709 C    1.324  1722 C    0.924  1734 H    0.903
                          1710 O    0.168
  1722   6 C    3.920 --  1725 C    0.960  1735 H    0.955  1721 N    0.924
                          1723 C    0.919
  1723   6 C    3.882 --  1724 O    1.475  1733 O    1.448  1722 C    0.919
  1724   8 O    1.760 --  1723 C    1.475  1733 O    0.176
  1725   6 C    3.995 --  1726 C    1.011  1736 H    0.974  1737 H    0.969
                          1722 C    0.960
  1726   6 C    3.989 --  1728 C    1.409  1727 C    1.404  1725 C    1.011
  1727   6 C    3.994 --  1729 C    1.460  1726 C    1.404  1738 H    0.972
                          1730 C    0.105
  1728   6 C    3.994 --  1730 C    1.450  1726 C    1.409  1739 H    0.970
                          1729 C    0.105
  1729   6 C    3.990 --  1727 C    1.460  1731 C    1.364  1740 H    0.966
                          1728 C    0.105
  1730   6 C    3.990 --  1728 C    1.450  1731 C    1.375  1741 H    0.960
                          1727 C    0.105
  1731   6 C    3.909 --  1730 C    1.375  1729 C    1.364  1732 O    1.031
  1732   8 O    2.035 --  1731 C    1.031  1742 H    0.796
  1733   8 O    1.821 --  1723 C    1.448  1724 O    0.176
  1734   1 H    0.952 --  1721 N    0.903
  1735   1 H    1.027 --  1722 C    0.955
  1736   1 H    1.003 --  1725 C    0.974
  1737   1 H    1.013 --  1725 C    0.969
  1738   1 H    1.005 --  1727 C    0.972
  1739   1 H    1.005 --  1728 C    0.970
  1740   1 H    1.005 --  1729 C    0.966
  1741   1 H    1.015 --  1730 C    0.960
  1742   1 H    0.883 --  1732 O    0.796
  1743   7 N    2.943 --  1744 C    0.986  1750 H    0.944  1955 H    0.933
  1744   6 C    3.973 --  1743 N    0.986  1751 H    0.973  1747 C    0.961
                          1745 C    0.958
  1745   6 C    3.874 --  1746 O    1.542  1759 N    1.290  1744 C    0.958
  1746   8 O    1.894 --  1745 C    1.542  1759 N    0.155
  1747   6 C    3.992 --  1749 C    1.010  1748 C    1.001  1752 H    0.970
                          1744 C    0.961
  1748   6 C    3.997 --  1747 C    1.001  1754 H    0.984  1755 H    0.983
                          1753 H    0.983
  1749   6 C    3.996 --  1747 C    1.010  1757 H    0.981  1758 H    0.980
                          1756 H    0.978
  1750   1 H    0.965 --  1743 N    0.944
  1751   1 H    1.006 --  1744 C    0.973
  1752   1 H    1.015 --  1747 C    0.970
  1753   1 H    1.010 --  1748 C    0.983
  1754   1 H    1.009 --  1748 C    0.984
  1755   1 H    1.007 --  1748 C    0.983
  1756   1 H    1.008 --  1749 C    0.978
  1757   1 H    1.005 --  1749 C    0.981
  1758   1 H    1.003 --  1749 C    0.980
  1759   7 N    3.351 --  1745 C    1.290  1760 C    0.948  1763 H    0.901
                          1746 O    0.155
  1760   6 C    3.945 --  1761 C    0.968  1765 H    0.961  1759 N    0.948
                          1764 H    0.942
  1761   6 C    3.890 --  1762 O    1.527  1766 N    1.308  1760 C    0.968
  1762   8 O    1.925 --  1761 C    1.527  1766 N    0.155
  1763   1 H    0.942 --  1759 N    0.901
  1764   1 H    1.021 --  1760 C    0.942
  1765   1 H    1.022 --  1760 C    0.961
  1766   7 N    3.369 --  1761 C    1.308  1767 C    0.932  1772 H    0.893
                          1762 O    0.155
  1767   6 C    3.945 --  1770 C    0.988  1773 H    0.966  1768 C    0.942
                          1766 N    0.932
  1768   6 C    3.902 --  1769 O    1.553  1777 N    1.326  1767 C    0.942
  1769   8 O    1.858 --  1768 C    1.553  1777 N    0.173
  1770   6 C    3.917 --  1767 C    0.988  1774 H    0.972  1775 H    0.970
                          1771 O    0.955
  1771   8 O    1.888 --  1770 C    0.955  1776 H    0.849
  1772   1 H    0.957 --  1766 N    0.893
  1773   1 H    1.017 --  1767 C    0.966
  1774   1 H    1.015 --  1770 C    0.972
  1775   1 H    1.020 --  1770 C    0.970
  1776   1 H    0.864 --  1771 O    0.849
  1777   7 N    3.377 --  1768 C    1.326  1778 C    0.947  1785 H    0.862
                          1769 O    0.173
  1778   6 C    3.948 --  1781 C    0.964  1786 H    0.959  1777 N    0.947
                          1779 C    0.944
  1779   6 C    3.897 --  1780 O    1.544  1791 N    1.320  1778 C    0.944
  1780   8 O    1.900 --  1779 C    1.544  1791 N    0.167
  1781   6 C    3.989 --  1782 C    0.970  1787 H    0.966  1788 H    0.965
                          1778 C    0.964
  1782   6 C    3.891 --  1783 O    1.533  1784 N    1.342  1781 C    0.970
  1783   8 O    1.912 --  1782 C    1.533  1784 N    0.164
  1784   7 N    3.337 --  1782 C    1.342  1790 H    0.896  1789 H    0.883
                          1783 O    0.164
  1785   1 H    0.956 --  1777 N    0.862
  1786   1 H    1.025 --  1778 C    0.959
  1787   1 H    1.019 --  1781 C    0.966
  1788   1 H    1.009 --  1781 C    0.965
  1789   1 H    0.956 --  1784 N    0.883
  1790   1 H    0.962 --  1784 N    0.896
  1791   7 N    3.379 --  1779 C    1.320  1792 C    0.938  1798 H    0.880
                          1780 O    0.167
  1792   6 C    3.941 --  1799 H    0.962  1795 C    0.960  1793 C    0.947
                          1791 N    0.938
  1793   6 C    3.910 --  1794 O    1.549  1805 N    1.332  1792 C    0.947
  1794   8 O    1.845 --  1793 C    1.549  1805 N    0.177
  1795   6 C    3.918 --  1797 C    1.000  1800 H    0.969  1792 C    0.960
                          1796 O    0.943
  1796   8 O    1.873 --  1795 C    0.943  1801 H    0.858
  1797   6 C    3.994 --  1795 C    1.000  1804 H    0.986  1802 H    0.983
                          1803 H    0.981
  1798   1 H    0.960 --  1791 N    0.880
  1799   1 H    1.027 --  1792 C    0.962
  1800   1 H    1.012 --  1795 C    0.969
  1801   1 H    0.872 --  1796 O    0.858
  1802   1 H    1.003 --  1797 C    0.983
  1803   1 H    1.015 --  1797 C    0.981
  1804   1 H    1.007 --  1797 C    0.986
  1805   7 N    3.379 --  1793 C    1.332  1806 C    0.928  1818 H    0.873
                          1794 O    0.177
  1806   6 C    3.922 --  1819 H    0.966  1809 C    0.960  1805 N    0.928
                          1807 C    0.913
  1807   6 C    3.888 --  1817 O    1.469  1808 O    1.467  1806 C    0.913
  1808   8 O    1.726 --  1807 C    1.467  1817 O    0.179
  1809   6 C    3.995 --  1810 C    1.011  1821 H    0.969  1820 H    0.964
                          1806 C    0.960
  1810   6 C    3.989 --  1812 C    1.409  1811 C    1.403  1809 C    1.011
  1811   6 C    3.993 --  1813 C    1.459  1810 C    1.403  1822 H    0.969
                          1814 C    0.105
  1812   6 C    3.994 --  1814 C    1.450  1810 C    1.409  1823 H    0.971
                          1813 C    0.105
  1813   6 C    3.990 --  1811 C    1.459  1815 C    1.364  1824 H    0.963
                          1812 C    0.105
  1814   6 C    3.989 --  1812 C    1.450  1815 C    1.375  1825 H    0.960
                          1811 C    0.105
  1815   6 C    3.908 --  1814 C    1.375  1813 C    1.364  1816 O    1.028
  1816   8 O    2.032 --  1815 C    1.028  1826 H    0.796
  1817   8 O    1.767 --  1807 C    1.469  1808 O    0.179
  1818   1 H    0.964 --  1805 N    0.873
  1819   1 H    1.024 --  1806 C    0.966
  1820   1 H    1.016 --  1809 C    0.964
  1821   1 H    1.015 --  1809 C    0.969
  1822   1 H    1.020 --  1811 C    0.969
  1823   1 H    1.005 --  1812 C    0.971
  1824   1 H    1.011 --  1813 C    0.963
  1825   1 H    1.012 --  1814 C    0.960
  1826   1 H    0.882 --  1816 O    0.796
  1827   7 N    2.937 --  1828 C    0.995  1956 H    0.949  1831 H    0.910
  1828   6 C    3.979 --  1827 N    0.995  1833 H    0.978  1829 C    0.974
                          1832 H    0.945
  1829   6 C    3.884 --  1830 O    1.551  1834 N    1.282  1828 C    0.974
  1830   8 O    1.844 --  1829 C    1.551  1834 N    0.155
  1831   1 H    0.973 --  1827 N    0.910
  1832   1 H    1.023 --  1828 C    0.945
  1833   1 H    1.024 --  1828 C    0.978
  1834   7 N    3.350 --  1829 C    1.282  1835 C    0.936  1840 H    0.894
                          1830 O    0.155
  1835   6 C    3.949 --  1838 C    0.986  1841 H    0.965  1836 C    0.945
                          1834 N    0.936
  1836   6 C    3.893 --  1837 O    1.544  1845 N    1.316  1835 C    0.945
  1837   8 O    1.911 --  1836 C    1.544  1845 N    0.167
  1838   6 C    3.917 --  1835 C    0.986  1842 H    0.970  1843 H    0.965
                          1839 O    0.956
  1839   8 O    1.875 --  1838 C    0.956  1844 H    0.857
  1840   1 H    0.958 --  1834 N    0.894
  1841   1 H    1.011 --  1835 C    0.965
  1842   1 H    1.022 --  1838 C    0.970
  1843   1 H    1.021 --  1838 C    0.965
  1844   1 H    0.874 --  1839 O    0.857
  1845   7 N    3.377 --  1836 C    1.316  1846 C    0.943  1853 H    0.899
                          1837 O    0.167
  1846   6 C    3.942 --  1849 C    0.965  1854 H    0.957  1845 N    0.943
                          1847 C    0.940
  1847   6 C    3.904 --  1848 O    1.570  1859 N    1.310  1846 C    0.940
  1848   8 O    1.866 --  1847 C    1.570  1859 N    0.172
  1849   6 C    3.991 --  1850 C    0.972  1855 H    0.968  1846 C    0.965
                          1856 H    0.961
  1850   6 C    3.887 --  1851 O    1.545  1852 N    1.324  1849 C    0.972
  1851   8 O    1.922 --  1850 C    1.545  1852 N    0.161
  1852   7 N    3.321 --  1850 C    1.324  1858 H    0.905  1857 H    0.895
                          1851 O    0.161
  1853   1 H    0.949 --  1845 N    0.899
  1854   1 H    1.025 --  1846 C    0.957
  1855   1 H    1.009 --  1849 C    0.968
  1856   1 H    1.011 --  1849 C    0.961
  1857   1 H    0.933 --  1852 N    0.895
  1858   1 H    0.943 --  1852 N    0.905
  1859   7 N    3.375 --  1847 C    1.310  1860 C    0.942  1866 H    0.876
                          1848 O    0.172
  1860   6 C    3.945 --  1867 H    0.964  1863 C    0.955  1861 C    0.952
                          1859 N    0.942
  1861   6 C    3.897 --  1862 O    1.541  1873 N    1.315  1860 C    0.952
  1862   8 O    1.917 --  1861 C    1.541  1873 N    0.165
  1863   6 C    3.923 --  1865 C    0.996  1868 H    0.960  1860 C    0.955
                          1864 O    0.952
  1864   8 O    1.902 --  1863 C    0.952  1869 H    0.824
  1865   6 C    3.994 --  1863 C    0.996  1871 H    0.982  1870 H    0.981
                          1872 H    0.981
  1866   1 H    0.959 --  1859 N    0.876
  1867   1 H    1.013 --  1860 C    0.964
  1868   1 H    1.017 --  1863 C    0.960
  1869   1 H    0.890 --  1864 O    0.824
  1870   1 H    1.013 --  1865 C    0.981
  1871   1 H    1.005 --  1865 C    0.982
  1872   1 H    1.013 --  1865 C    0.981
  1873   7 N    3.373 --  1861 C    1.315  1874 C    0.930  1886 H    0.902
                          1862 O    0.165
  1874   6 C    3.929 --  1877 C    0.960  1887 H    0.954  1873 N    0.930
                          1875 C    0.925
  1875   6 C    3.875 --  1885 O    1.468  1876 O    1.434  1874 C    0.925
  1876   8 O    1.832 --  1875 C    1.434  1885 O    0.169
  1877   6 C    3.995 --  1878 C    1.011  1888 H    0.974  1889 H    0.971
                          1874 C    0.960
  1878   6 C    3.989 --  1880 C    1.410  1879 C    1.404  1877 C    1.011
  1879   6 C    3.994 --  1881 C    1.462  1878 C    1.404  1890 H    0.972
                          1882 C    0.104
  1880   6 C    3.995 --  1882 C    1.451  1878 C    1.410  1891 H    0.973
                          1881 C    0.105
  1881   6 C    3.990 --  1879 C    1.462  1883 C    1.363  1892 H    0.965
                          1880 C    0.105
  1882   6 C    3.990 --  1880 C    1.451  1883 C    1.376  1893 H    0.961
                          1879 C    0.104
  1883   6 C    3.912 --  1882 C    1.376  1881 C    1.363  1884 O    1.042
  1884   8 O    2.006 --  1883 C    1.042  1894 H    0.800
  1885   8 O    1.813 --  1875 C    1.468  1876 O    0.169
  1886   1 H    0.953 --  1873 N    0.902
  1887   1 H    1.026 --  1874 C    0.954
  1888   1 H    1.002 --  1877 C    0.974
  1889   1 H    1.010 --  1877 C    0.971
  1890   1 H    1.004 --  1879 C    0.972
  1891   1 H    1.002 --  1880 C    0.973
  1892   1 H    1.005 --  1881 C    0.965
  1893   1 H    1.008 --  1882 C    0.961
  1894   1 H    0.887 --  1884 O    0.800
  1895   7 N    2.941 --  1896 C    0.994  1957 H    0.941  1899 H    0.941
  1896   6 C    3.978 --  1895 N    0.994  1897 C    0.974  1901 H    0.966
                          1900 H    0.952
  1897   6 C    3.881 --  1898 O    1.523  1902 N    1.298  1896 C    0.974
  1898   8 O    1.921 --  1897 C    1.523  1902 N    0.151
  1899   1 H    0.954 --  1895 N    0.941
  1900   1 H    1.007 --  1896 C    0.952
  1901   1 H    1.033 --  1896 C    0.966
  1902   7 N    3.358 --  1897 C    1.298  1903 C    0.933  1908 H    0.894
                          1898 O    0.151
  1903   6 C    3.947 --  1906 C    0.987  1909 H    0.966  1904 C    0.942
                          1902 N    0.933
  1904   6 C    3.901 --  1905 O    1.562  1913 N    1.317  1903 C    0.942
  1905   8 O    1.850 --  1904 C    1.562  1913 N    0.173
  1906   6 C    3.917 --  1903 C    0.987  1910 H    0.973  1911 H    0.970
                          1907 O    0.955
  1907   8 O    1.888 --  1906 C    0.955  1912 H    0.849
  1908   1 H    0.932 --  1902 N    0.894
  1909   1 H    1.017 --  1903 C    0.966
  1910   1 H    1.012 --  1906 C    0.973
  1911   1 H    1.021 --  1906 C    0.970
  1912   1 H    0.864 --  1907 O    0.849
  1913   7 N    3.371 --  1904 C    1.317  1914 C    0.951  1921 H    0.860
                          1905 O    0.173
  1914   6 C    3.954 --  1915 C    0.980  1922 H    0.955  1917 C    0.951
                          1913 N    0.951
  1915   6 C    3.812 --  1916 O    1.800  1914 C    0.980  1958 H    0.959
  1916   8 O    1.993 --  1915 C    1.800
  1917   6 C    3.986 --  1923 H    0.972  1924 H    0.964  1918 C    0.963
                          1914 C    0.951
  1918   6 C    3.900 --  1919 O    1.578  1920 N    1.321  1917 C    0.963
  1919   8 O    1.852 --  1918 C    1.578  1920 N    0.172
  1920   7 N    3.320 --  1918 C    1.321  1926 H    0.896  1925 H    0.885
                          1919 O    0.172
  1921   1 H    0.954 --  1913 N    0.860
  1922   1 H    1.008 --  1914 C    0.955
  1923   1 H    1.009 --  1917 C    0.972
  1924   1 H    1.001 --  1917 C    0.964
  1925   1 H    0.956 --  1920 N    0.885
  1926   1 H    0.961 --  1920 N    0.896
  1927   7 N    2.935 --  1928 C    0.978  1933 H    0.945  1959 H    0.937
  1928   6 C    3.975 --  1931 C    0.981  1927 N    0.978  1934 H    0.972
                          1929 C    0.952
  1929   6 C    3.887 --  1930 O    1.559  1938 N    1.300  1928 C    0.952
  1930   8 O    1.841 --  1929 C    1.559  1938 N    0.165
  1931   6 C    3.919 --  1928 C    0.981  1935 H    0.974  1936 H    0.965
                          1932 O    0.954
  1932   8 O    1.893 --  1931 C    0.954  1937 H    0.840
  1933   1 H    0.962 --  1927 N    0.945
  1934   1 H    1.010 --  1928 C    0.972
  1935   1 H    1.018 --  1931 C    0.974
  1936   1 H    1.028 --  1931 C    0.965
  1937   1 H    0.899 --  1932 O    0.840
  1938   7 N    3.355 --  1929 C    1.300  1939 C    0.953  1946 H    0.865
                          1930 O    0.165
  1939   6 C    3.958 --  1940 C    0.978  1947 H    0.956  1938 N    0.953
                          1942 C    0.951
  1940   6 C    3.815 --  1941 O    1.806  1939 C    0.978  1960 H    0.959
  1941   8 O    1.999 --  1940 C    1.806
  1942   6 C    3.987 --  1943 C    0.966  1948 H    0.965  1949 H    0.965
                          1939 C    0.951
  1943   6 C    3.894 --  1944 O    1.579  1945 N    1.311  1942 C    0.966
  1944   8 O    1.847 --  1943 C    1.579  1945 N    0.168
  1945   7 N    3.309 --  1943 C    1.311  1950 H    0.898  1951 H    0.895
                          1944 O    0.168
  1946   1 H    0.954 --  1938 N    0.865
  1947   1 H    1.011 --  1939 C    0.956
  1948   1 H    1.018 --  1942 C    0.965
  1949   1 H    1.003 --  1942 C    0.965
  1950   1 H    0.934 --  1945 N    0.898
  1951   1 H    0.958 --  1945 N    0.895
  1952   1 H    1.009 --  1622 C    0.962
  1953   1 H    1.005 --  1645 C    0.959
  1954   1 H    0.950 --  1659 N    0.935
  1955   1 H    0.947 --  1743 N    0.933
  1956   1 H    0.957 --  1827 N    0.949
  1957   1 H    0.948 --  1895 N    0.941
  1958   1 H    1.004 --  1915 C    0.959
  1959   1 H    0.958 --  1927 N    0.937
  1960   1 H    1.005 --  1940 C    0.959
  1961   1 H    1.000 --   212 C    0.957
  1962   1 H    0.951 --   226 N    0.933
  1963   1 H    1.012 --   228 C    0.965
  1964   1 H    0.952 --   242 N    0.933
  1965   1 H    1.013 --   244 C    0.965
  1966   1 H    0.950 --   258 N    0.944
  1967   1 H    1.011 --   260 C    0.964
  1968   1 H    0.948 --   265 N    0.934
  1969   1 H    1.010 --   267 C    0.962
  1970   1 H    0.953 --   276 N    0.933
  1971   1 H    1.011 --   278 C    0.962
  1972   1 H    0.950 --   287 N    0.940
  1973   1 H    1.011 --   289 C    0.963
  1974   1 H    0.960 --   301 N    0.944
  1975   1 H    0.959 --   323 N    0.943
  1976   1 H    0.960 --   345 N    0.944
  1977   1 H    1.003 --   369 C    0.956
  1978   1 H    1.000 --   385 C    0.955
  1979   1 H    0.997 --   401 C    0.954
  1980   1 H    0.949 --   415 N    0.933
  1981   1 H    1.012 --   417 C    0.964
  1982   1 H    0.949 --   431 N    0.944
  1983   1 H    1.010 --   433 C    0.963
  1984   1 H    0.961 --   438 N    0.945
  1985   1 H    0.962 --   460 N    0.946
  1986   1 H    0.969 --   482 N    0.951
  1987   1 H    0.961 --   504 N    0.945
  1988   1 H    1.007 --   616 C    0.960
  1989   1 H    1.012 --   648 C    0.961
  1990   1 H    1.007 --   803 C    0.960
  1991   1 H    1.008 --   846 C    0.960
  1992   1 H    1.010 --   969 C    0.961
  1993   1 H    1.007 --  1024 C    0.960
  1994   1 H    0.951 --  1033 N    0.935
  1995   1 H    0.946 --  1117 N    0.940
  1996   1 H    1.004 --  1137 C    0.960
  1997   1 H    0.949 --  1149 N    0.942
  1998   1 H    0.956 --  1217 N    0.937
  1999   1 H    1.005 --  1412 C    0.960
  2000   1 H    1.012 --  1435 C    0.960
  2001   1 H    1.008 --  1583 C    0.962
 ---------------------------------------------------------------------------


 dipole moment from electron density (au)
     X       Y       Z   
  34.5468  11.3232  60.8533  total (Debye):  180.174


           -------------------------------------------------
          | TOTAL ENERGY            -3540.588555127436 Eh   |
          | GRADIENT NORM               2.133845882370 Eh/α |
          | HOMO-LUMO GAP               0.424036872883 eV   |
           -------------------------------------------------

------------------------------------------------------------------------
 * finished run on 2022/05/30 at 00:37:47.079     
------------------------------------------------------------------------
 total:
 * wall-time:     0 d,  0 h, 11 min, 11.046 sec
 *  cpu-time:     0 d,  0 h, 11 min, 10.296 sec
 * ratio c/w:     0.999 speedup
 SCF:
 * wall-time:     0 d,  0 h, 10 min, 21.747 sec
 *  cpu-time:     0 d,  0 h, 10 min, 21.071 sec
 * ratio c/w:     0.999 speedup

